76326384
  -OEChem-05162309142D

 52 54  0     1  0  0  0  0  0999 V2000
    3.0104    1.3030    0.0000 O   0  0  0  0  0  0  0  0  0  0  0  0
    4.5346   -4.4388    0.0000 O   0  0  0  0  0  0  0  0  0  0  0  0
    5.7947   -3.1787    0.0000 O   0  0  0  0  0  0  0  0  0  0  0  0
    4.5071    2.1748    0.0000 O   0  0  0  0  0  0  0  0  0  0  0  0
    3.5346   -1.3611    0.0000 C   0  0  2  0  0  0  0  0  0  0  0  0
    4.5346   -1.3611    0.0000 C   0  0  1  0  0  0  0  0  0  0  0  0
    4.0346   -2.8999    0.0000 C   0  0  2  0  0  0  0  0  0  0  0  0
    3.2256   -2.3121    0.0000 C   0  0  0  0  0  0  0  0  0  0  0  0
    2.9999   -0.4671    0.0000 C   0  0  2  0  0  0  0  0  0  0  0  0
    4.8436   -2.3121    0.0000 C   0  0  0  0  0  0  0  0  0  0  0  0
    5.0693   -0.4671    0.0000 C   0  0  0  0  0  0  0  0  0  0  0  0
    3.5138    0.4389    0.0000 C   0  0  1  0  0  0  0  0  0  0  0  0
    4.5554    0.4389    0.0000 C   0  0  0  0  0  0  0  0  0  0  0  0
    2.5346   -1.3611    0.0000 C   0  0  0  0  0  0  0  0  0  0  0  0
    3.2256   -3.4877    0.0000 C   0  0  0  0  0  0  0  0  0  0  0  0
    4.8436   -3.4877    0.0000 C   0  0  0  0  0  0  0  0  0  0  0  0
    2.0000   -0.4787    0.0000 C   0  0  0  0  0  0  0  0  0  0  0  0
    3.5346   -4.4388    0.0000 C   0  0  0  0  0  0  0  0  0  0  0  0
    2.2745   -3.1787    0.0000 C   0  0  0  0  0  0  0  0  0  0  0  0
    3.5071    2.1710    0.0000 C   0  0  0  0  0  0  0  0  0  0  0  0
    3.0038    3.0351    0.0000 C   0  0  0  0  0  0  0  0  0  0  0  0
    2.0038    3.0312    0.0000 C   0  0  0  0  0  0  0  0  0  0  0  0
    3.5004    3.9030    0.0000 C   0  0  0  0  0  0  0  0  0  0  0  0
    4.5004    3.9069    0.0000 C   0  0  0  0  0  0  0  0  0  0  0  0
    5.3792   -1.4564    0.0000 H   0  0  0  0  0  0  0  0  0  0  0  0
    2.6592   -2.0600    0.0000 H   0  0  0  0  0  0  0  0  0  0  0  0
    2.9156   -2.8491    0.0000 H   0  0  0  0  0  0  0  0  0  0  0  0
    2.6848    0.0668    0.0000 H   0  0  0  0  0  0  0  0  0  0  0  0
    5.1536   -2.8491    0.0000 H   0  0  0  0  0  0  0  0  0  0  0  0
    5.4100   -2.0600    0.0000 H   0  0  0  0  0  0  0  0  0  0  0  0
    5.5390   -0.8717    0.0000 H   0  0  0  0  0  0  0  0  0  0  0  0
    5.5483   -0.0735    0.0000 H   0  0  0  0  0  0  0  0  0  0  0  0
    2.8938    0.4354    0.0000 H   0  0  0  0  0  0  0  0  0  0  0  0
    5.1391    0.6480    0.0000 H   0  0  0  0  0  0  0  0  0  0  0  0
    4.4493    1.0498    0.0000 H   0  0  0  0  0  0  0  0  0  0  0  0
    2.5346   -0.7411    0.0000 H   0  0  0  0  0  0  0  0  0  0  0  0
    1.9146   -1.3611    0.0000 H   0  0  0  0  0  0  0  0  0  0  0  0
    2.5346   -1.9811    0.0000 H   0  0  0  0  0  0  0  0  0  0  0  0
    1.9928    0.1413    0.0000 H   0  0  0  0  0  0  0  0  0  0  0  0
    1.3800   -0.4859    0.0000 H   0  0  0  0  0  0  0  0  0  0  0  0
    2.0072   -1.0986    0.0000 H   0  0  0  0  0  0  0  0  0  0  0  0
    2.9281   -4.5677    0.0000 H   0  0  0  0  0  0  0  0  0  0  0  0
    3.5994   -5.0554    0.0000 H   0  0  0  0  0  0  0  0  0  0  0  0
    2.1456   -2.5722    0.0000 H   0  0  0  0  0  0  0  0  0  0  0  0
    1.8138   -3.5935    0.0000 H   0  0  0  0  0  0  0  0  0  0  0  0
    2.0014    3.6512    0.0000 H   0  0  0  0  0  0  0  0  0  0  0  0
    1.3838    3.0288    0.0000 H   0  0  0  0  0  0  0  0  0  0  0  0
    2.0062    2.4112    0.0000 H   0  0  0  0  0  0  0  0  0  0  0  0
    3.1884    4.4388    0.0000 H   0  0  0  0  0  0  0  0  0  0  0  0
    4.5028    3.2869    0.0000 H   0  0  0  0  0  0  0  0  0  0  0  0
    5.1204    3.9093    0.0000 H   0  0  0  0  0  0  0  0  0  0  0  0
    4.4980    4.5269    0.0000 H   0  0  0  0  0  0  0  0  0  0  0  0
 12  1  1  6  0  0  0
  1 20  1  0  0  0  0
  2 16  1  0  0  0  0
  2 18  1  0  0  0  0
  3 16  2  0  0  0  0
  4 20  2  0  0  0  0
  5  6  1  0  0  0  0
  5  8  1  0  0  0  0
  5  9  1  0  0  0  0
  5 14  1  1  0  0  0
  6 10  1  0  0  0  0
  6 11  1  0  0  0  0
  6 25  1  1  0  0  0
  7  8  1  0  0  0  0
  7 10  1  6  0  0  0
  7 15  1  0  0  0  0
  7 16  1  0  0  0  0
  8 26  1  0  0  0  0
  8 27  1  0  0  0  0
  9 12  1  0  0  0  0
  9 17  1  1  0  0  0
  9 28  1  0  0  0  0
 10 29  1  0  0  0  0
 10 30  1  0  0  0  0
 11 13  1  0  0  0  0
 11 31  1  0  0  0  0
 11 32  1  0  0  0  0
 12 13  1  0  0  0  0
 12 33  1  0  0  0  0
 13 34  1  0  0  0  0
 13 35  1  0  0  0  0
 14 36  1  0  0  0  0
 14 37  1  0  0  0  0
 14 38  1  0  0  0  0
 15 18  1  0  0  0  0
 15 19  2  0  0  0  0
 17 39  1  0  0  0  0
 17 40  1  0  0  0  0
 17 41  1  0  0  0  0
 18 42  1  0  0  0  0
 18 43  1  0  0  0  0
 19 44  1  0  0  0  0
 19 45  1  0  0  0  0
 20 21  1  0  0  0  0
 21 22  1  0  0  0  0
 21 23  2  0  0  0  0
 22 46  1  0  0  0  0
 22 47  1  0  0  0  0
 22 48  1  0  0  0  0
 23 24  1  0  0  0  0
 23 49  1  0  0  0  0
 24 50  1  0  0  0  0
 24 51  1  0  0  0  0
 24 52  1  0  0  0  0
M  END
> <PUBCHEM_COMPOUND_CID>
76326384

> <PUBCHEM_COMPOUND_CANONICALIZED>
1

> <PUBCHEM_CACTVS_COMPLEXITY>
619

> <PUBCHEM_CACTVS_HBOND_ACCEPTOR>
4

> <PUBCHEM_CACTVS_HBOND_DONOR>
0

> <PUBCHEM_CACTVS_ROTATABLE_BOND>
3

> <PUBCHEM_CACTVS_SUBSKEYS>
AAADceB4OAAAAAAAAAAAAAAAAAAAAaIAAAAwAAAAAAAAAGAAAAAAGgAAAAAADxSggAICCAAABACIAiDSCAAAAAAgAAAACAEAAEgABBIAIQACEAAEwAAAIYGKyPCPgAAAAAAAAABAAAYAADAAAQAACAAAAA==

> <PUBCHEM_IUPAC_OPENEYE_NAME>
[(2R,3aS,4R,5R,7aR)-3a,4-dimethyl-4'-methylene-2'-oxo-spiro[3,4,5,6,7,7a-hexahydro-1H-indene-2,3'-tetrahydrofuran]-5-yl] (Z)-2-methylbut-2-enoate

> <PUBCHEM_IUPAC_CAS_NAME>
(Z)-2-methyl-2-butenoic acid [(2R,3aS,4R,5R,7aR)-3a,4-dimethyl-4'-methylene-2'-oxo-5-spiro[3,4,5,6,7,7a-hexahydro-1H-indene-2,3'-oxolane]yl] ester

> <PUBCHEM_IUPAC_NAME_MARKUP>
[(2<I>R</I>,3<I>a</I><I>S</I>,4<I>R</I>,5<I>R</I>,7<I>a</I><I>R</I>)-3<I>a</I>,4-dimethyl-4&apos;-methylidene-2&apos;-oxospiro[3,4,5,6,7,7<I>a</I>-hexahydro-1<I>H</I>-indene-2,3&apos;-oxolane]-5-yl] (<I>Z</I>)-2-methylbut-2-enoate

> <PUBCHEM_IUPAC_NAME>
[(2R,3aS,4R,5R,7aR)-3a,4-dimethyl-4'-methylidene-2'-oxospiro[3,4,5,6,7,7a-hexahydro-1H-indene-2,3'-oxolane]-5-yl] (Z)-2-methylbut-2-enoate

> <PUBCHEM_IUPAC_SYSTEMATIC_NAME>
[(2R,3aS,4R,5R,7aR)-3a,4-dimethyl-4'-methylidene-2'-oxidanylidene-spiro[3,4,5,6,7,7a-hexahydro-1H-indene-2,3'-oxolane]-5-yl] (Z)-2-methylbut-2-enoate

> <PUBCHEM_IUPAC_TRADITIONAL_NAME>
(Z)-2-methylbut-2-enoic acid [(2R,3aS,4R,5R,7aR)-2'-keto-3a,4-dimethyl-4'-methylene-spiro[3,4,5,6,7,7a-hexahydro-1H-indene-2,3'-tetrahydrofuran]-5-yl] ester

> <PUBCHEM_IUPAC_INCHI>
InChI=1S/C20H28O4/c1-6-12(2)17(21)24-16-8-7-15-9-20(11-19(15,5)14(16)4)13(3)10-23-18(20)22/h6,14-16H,3,7-11H2,1-2,4-5H3/b12-6-/t14-,15+,16+,19+,20+/m0/s1

> <PUBCHEM_IUPAC_INCHIKEY>
FJDDYDAPZXSWAP-ZWQIZNORSA-N

> <PUBCHEM_XLOGP3_AA>
3.7

> <PUBCHEM_EXACT_MASS>
332.19875937

> <PUBCHEM_MOLECULAR_FORMULA>
C20H28O4

> <PUBCHEM_MOLECULAR_WEIGHT>
332.4

> <PUBCHEM_OPENEYE_CAN_SMILES>
CC=C(C)C(=O)OC1CCC2CC3(CC2(C1C)C)C(=C)COC3=O

> <PUBCHEM_OPENEYE_ISO_SMILES>
C/C=C(/C)\C(=O)O[C@@H]1CC[C@@H]2C[C@@]3(C[C@@]2([C@H]1C)C)C(=C)COC3=O

> <PUBCHEM_CACTVS_TPSA>
52.6

> <PUBCHEM_MONOISOTOPIC_WEIGHT>
332.19875937

> <PUBCHEM_TOTAL_CHARGE>
0

> <PUBCHEM_HEAVY_ATOM_COUNT>
24

> <PUBCHEM_ATOM_DEF_STEREO_COUNT>
5

> <PUBCHEM_ATOM_UDEF_STEREO_COUNT>
0

> <PUBCHEM_BOND_DEF_STEREO_COUNT>
1

> <PUBCHEM_BOND_UDEF_STEREO_COUNT>
0

> <PUBCHEM_ISOTOPIC_ATOM_COUNT>
0

> <PUBCHEM_COMPONENT_COUNT>
1

> <PUBCHEM_CACTVS_TAUTO_COUNT>
-1

> <PUBCHEM_COORDINATE_TYPE>
1
5
255

> <PUBCHEM_BONDANNOTATIONS>
12  1  6
5  14  5
6  25  5
7  10  6
9  17  5

$$$$
