71718849
  -OEChem-05162309492D

 69 70  0     1  0  0  0  0  0999 V2000
   10.1851   -1.1539    0.0000 O   0  0  0  0  0  0  0  0  0  0  0  0
    6.3301   -0.3986    0.0000 O   0  0  0  0  0  0  0  0  0  0  0  0
   11.4580    0.6014    0.0000 O   0  0  0  0  0  0  0  0  0  0  0  0
   11.8314   -0.6158    0.0000 O   0  0  0  0  0  0  0  0  0  0  0  0
    5.4641    1.1014    0.0000 O   0  0  0  0  0  0  0  0  0  0  0  0
    8.9282    1.1014    0.0000 C   0  0  1  0  0  0  0  0  0  0  0  0
    8.0622    1.6014    0.0000 C   0  0  1  0  0  0  0  0  0  0  0  0
    8.9282    0.1014    0.0000 C   0  0  1  0  0  0  0  0  0  0  0  0
    7.1962    1.1014    0.0000 C   0  0  0  0  0  0  0  0  0  0  0  0
    9.8744   -0.2034    0.0000 C   0  0  1  0  0  0  0  0  0  0  0  0
    7.1962    0.1014    0.0000 C   0  0  2  0  0  0  0  0  0  0  0  0
    8.0622   -0.3986    0.0000 C   0  0  0  0  0  0  0  0  0  0  0  0
    8.0622    2.6014    0.0000 C   0  0  0  0  0  0  0  0  0  0  0  0
    9.8744    1.4061    0.0000 C   0  0  0  0  0  0  0  0  0  0  0  0
   10.4580    0.6014    0.0000 C   0  0  0  0  0  0  0  0  0  0  0  0
    7.1962    3.1014    0.0000 C   0  0  0  0  0  0  0  0  0  0  0  0
    8.5622    3.4674    0.0000 C   0  0  0  0  0  0  0  0  0  0  0  0
   10.1851    2.3566    0.0000 C   0  0  0  0  0  0  0  0  0  0  0  0
    8.0622   -1.3986    0.0000 C   0  0  0  0  0  0  0  0  0  0  0  0
    9.9789    3.3351    0.0000 C   0  0  0  0  0  0  0  0  0  0  0  0
   11.1636   -1.3601    0.0000 C   0  0  0  0  0  0  0  0  0  0  0  0
    5.4641    0.1014    0.0000 C   0  0  0  0  0  0  0  0  0  0  0  0
   11.4743   -2.3106    0.0000 C   0  0  3  0  0  0  0  0  0  0  0  0
   12.4528   -2.5169    0.0000 C   0  0  0  0  0  0  0  0  0  0  0  0
    4.5981   -0.3986    0.0000 C   0  0  0  0  0  0  0  0  0  0  0  0
   10.8064   -3.0549    0.0000 C   0  0  0  0  0  0  0  0  0  0  0  0
   12.7634   -3.4674    0.0000 C   0  0  0  0  0  0  0  0  0  0  0  0
    3.7320    0.1014    0.0000 C   0  0  0  0  0  0  0  0  0  0  0  0
    2.8660   -0.3986    0.0000 C   0  0  0  0  0  0  0  0  0  0  0  0
    3.7320    1.1014    0.0000 C   0  0  0  0  0  0  0  0  0  0  0  0
    2.0000    0.1014    0.0000 C   0  0  0  0  0  0  0  0  0  0  0  0
    9.0182    1.9466    0.0000 H   0  0  0  0  0  0  0  0  0  0  0  0
    7.5252    1.9114    0.0000 H   0  0  0  0  0  0  0  0  0  0  0  0
    9.0182   -0.7439    0.0000 H   0  0  0  0  0  0  0  0  0  0  0  0
    6.9841    1.6840    0.0000 H   0  0  0  0  0  0  0  0  0  0  0  0
    6.5856    0.9937    0.0000 H   0  0  0  0  0  0  0  0  0  0  0  0
   10.4869   -0.2996    0.0000 H   0  0  0  0  0  0  0  0  0  0  0  0
    6.6592    0.4114    0.0000 H   0  0  0  0  0  0  0  0  0  0  0  0
    8.6610    2.4409    0.0000 H   0  0  0  0  0  0  0  0  0  0  0  0
    7.5062    3.6383    0.0000 H   0  0  0  0  0  0  0  0  0  0  0  0
    6.6592    3.4114    0.0000 H   0  0  0  0  0  0  0  0  0  0  0  0
    6.8862    2.5644    0.0000 H   0  0  0  0  0  0  0  0  0  0  0  0
    9.0991    3.1574    0.0000 H   0  0  0  0  0  0  0  0  0  0  0  0
    8.8722    4.0043    0.0000 H   0  0  0  0  0  0  0  0  0  0  0  0
    8.0252    3.7774    0.0000 H   0  0  0  0  0  0  0  0  0  0  0  0
   10.7918    2.4845    0.0000 H   0  0  0  0  0  0  0  0  0  0  0  0
    7.5252   -1.7086    0.0000 H   0  0  0  0  0  0  0  0  0  0  0  0
    8.5991   -1.7086    0.0000 H   0  0  0  0  0  0  0  0  0  0  0  0
   10.5855    3.4630    0.0000 H   0  0  0  0  0  0  0  0  0  0  0  0
    9.8510    3.9418    0.0000 H   0  0  0  0  0  0  0  0  0  0  0  0
    9.3722    3.2073    0.0000 H   0  0  0  0  0  0  0  0  0  0  0  0
   11.6669   -2.9000    0.0000 H   0  0  0  0  0  0  0  0  0  0  0  0
   13.0666   -2.4295    0.0000 H   0  0  0  0  0  0  0  0  0  0  0  0
   12.4733   -1.8972    0.0000 H   0  0  0  0  0  0  0  0  0  0  0  0
    4.5981   -1.0186    0.0000 H   0  0  0  0  0  0  0  0  0  0  0  0
   10.3449   -2.6409    0.0000 H   0  0  0  0  0  0  0  0  0  0  0  0
   10.3923   -3.5164    0.0000 H   0  0  0  0  0  0  0  0  0  0  0  0
   11.2679   -3.4690    0.0000 H   0  0  0  0  0  0  0  0  0  0  0  0
   12.1741   -3.6600    0.0000 H   0  0  0  0  0  0  0  0  0  0  0  0
   12.9560   -4.0567    0.0000 H   0  0  0  0  0  0  0  0  0  0  0  0
   13.3527   -3.2748    0.0000 H   0  0  0  0  0  0  0  0  0  0  0  0
    2.4675   -0.8736    0.0000 H   0  0  0  0  0  0  0  0  0  0  0  0
    3.2646   -0.8736    0.0000 H   0  0  0  0  0  0  0  0  0  0  0  0
    4.3520    1.1014    0.0000 H   0  0  0  0  0  0  0  0  0  0  0  0
    3.7320    1.7214    0.0000 H   0  0  0  0  0  0  0  0  0  0  0  0
    3.1120    1.1014    0.0000 H   0  0  0  0  0  0  0  0  0  0  0  0
    2.3100    0.6383    0.0000 H   0  0  0  0  0  0  0  0  0  0  0  0
    1.4631    0.4114    0.0000 H   0  0  0  0  0  0  0  0  0  0  0  0
    1.6900   -0.4356    0.0000 H   0  0  0  0  0  0  0  0  0  0  0  0
 10  1  1  1  0  0  0
  1 21  1  0  0  0  0
 11  2  1  6  0  0  0
  2 22  1  0  0  0  0
  3 15  2  0  0  0  0
  4 21  2  0  0  0  0
  5 22  2  0  0  0  0
  6  7  1  0  0  0  0
  6  8  1  0  0  0  0
  6 14  1  0  0  0  0
  6 32  1  1  0  0  0
  7  9  1  0  0  0  0
  7 13  1  1  0  0  0
  7 33  1  0  0  0  0
  8 10  1  0  0  0  0
  8 12  1  0  0  0  0
  8 34  1  6  0  0  0
  9 11  1  0  0  0  0
  9 35  1  0  0  0  0
  9 36  1  0  0  0  0
 10 15  1  0  0  0  0
 10 37  1  0  0  0  0
 11 12  1  0  0  0  0
 11 38  1  0  0  0  0
 12 19  2  0  0  0  0
 13 16  1  0  0  0  0
 13 17  1  0  0  0  0
 13 39  1  0  0  0  0
 14 15  1  0  0  0  0
 14 18  2  0  0  0  0
 16 40  1  0  0  0  0
 16 41  1  0  0  0  0
 16 42  1  0  0  0  0
 17 43  1  0  0  0  0
 17 44  1  0  0  0  0
 17 45  1  0  0  0  0
 18 20  1  0  0  0  0
 18 46  1  0  0  0  0
 19 47  1  0  0  0  0
 19 48  1  0  0  0  0
 20 49  1  0  0  0  0
 20 50  1  0  0  0  0
 20 51  1  0  0  0  0
 21 23  1  0  0  0  0
 22 25  1  0  0  0  0
 23 24  1  0  0  0  0
 23 26  1  0  0  0  0
 23 52  1  0  0  0  0
 24 27  1  0  0  0  0
 24 53  1  0  0  0  0
 24 54  1  0  0  0  0
 25 28  2  0  0  0  0
 25 55  1  0  0  0  0
 26 56  1  0  0  0  0
 26 57  1  0  0  0  0
 26 58  1  0  0  0  0
 27 59  1  0  0  0  0
 27 60  1  0  0  0  0
 27 61  1  0  0  0  0
 28 29  1  0  0  0  0
 28 30  1  0  0  0  0
 29 31  1  0  0  0  0
 29 62  1  0  0  0  0
 29 63  1  0  0  0  0
 30 64  1  0  0  0  0
 30 65  1  0  0  0  0
 30 66  1  0  0  0  0
 31 67  1  0  0  0  0
 31 68  1  0  0  0  0
 31 69  1  0  0  0  0
M  END
> <PUBCHEM_COMPOUND_CID>
71718849

> <PUBCHEM_COMPOUND_CANONICALIZED>
1

> <PUBCHEM_CACTVS_COMPLEXITY>
788

> <PUBCHEM_CACTVS_HBOND_ACCEPTOR>
5

> <PUBCHEM_CACTVS_HBOND_DONOR>
0

> <PUBCHEM_CACTVS_ROTATABLE_BOND>
9

> <PUBCHEM_CACTVS_SUBSKEYS>
AAADcfB4OAAAAAAAAAAAAAAAAAAAAYAAAAAwAAAAAAAAAGAAAAAAGgAAAAAADRSggAICCAAABACIAqDSCAIAAAAgAAAACAFAAEgABBIAIQQCEAAEwAAIIYPIzPDOgAAAAAAAAABAAAYAACAAAIAADAAAAA==

> <PUBCHEM_IUPAC_OPENEYE_NAME>
[(1E,3S,3aR,5R,7S,7aS)-1-ethylidene-7-isopropyl-3-(2-methylbutanoyloxy)-4-methylene-2-oxo-3,3a,5,6,7,7a-hexahydroinden-5-yl] (E)-3-methylpent-2-enoate

> <PUBCHEM_IUPAC_CAS_NAME>
(E)-3-methyl-2-pentenoic acid [(1E,3S,3aR,5R,7S,7aS)-1-ethylidene-4-methylene-3-(2-methyl-1-oxobutoxy)-2-oxo-7-propan-2-yl-3,3a,5,6,7,7a-hexahydroinden-5-yl] ester

> <PUBCHEM_IUPAC_NAME_MARKUP>
[(1<I>E</I>,3<I>S</I>,3<I>a</I><I>R</I>,5<I>R</I>,7<I>S</I>,7<I>a</I><I>S</I>)-1-ethylidene-3-(2-methylbutanoyloxy)-4-methylidene-2-oxo-7-propan-2-yl-3,3<I>a</I>,5,6,7,7<I>a</I>-hexahydroinden-5-yl] (<I>E</I>)-3-methylpent-2-enoate

> <PUBCHEM_IUPAC_NAME>
[(1E,3S,3aR,5R,7S,7aS)-1-ethylidene-3-(2-methylbutanoyloxy)-4-methylidene-2-oxo-7-propan-2-yl-3,3a,5,6,7,7a-hexahydroinden-5-yl] (E)-3-methylpent-2-enoate

> <PUBCHEM_IUPAC_SYSTEMATIC_NAME>
[(1E,3S,3aR,5R,7S,7aS)-1-ethylidene-3-(2-methylbutanoyloxy)-4-methylidene-2-oxidanylidene-7-propan-2-yl-3,3a,5,6,7,7a-hexahydroinden-5-yl] (E)-3-methylpent-2-enoate

> <PUBCHEM_IUPAC_TRADITIONAL_NAME>
(E)-3-methylpent-2-enoic acid [(1E,3S,3aR,5R,7S,7aS)-1-ethylidene-7-isopropyl-2-keto-3-(2-methylbutanoyloxy)-4-methylene-3,3a,5,6,7,7a-hexahydroinden-5-yl] ester

> <PUBCHEM_IUPAC_INCHI>
InChI=1S/C26H38O5/c1-9-15(6)12-21(27)30-20-13-19(14(4)5)23-18(11-3)24(28)25(22(23)17(20)8)31-26(29)16(7)10-2/h11-12,14,16,19-20,22-23,25H,8-10,13H2,1-7H3/b15-12+,18-11+/t16?,19-,20+,22-,23-,25-/m0/s1

> <PUBCHEM_IUPAC_INCHIKEY>
XTQQLVJPORCMAK-OGWQZUEXSA-N

> <PUBCHEM_XLOGP3_AA>
5.9

> <PUBCHEM_EXACT_MASS>
430.27192431

> <PUBCHEM_MOLECULAR_FORMULA>
C26H38O5

> <PUBCHEM_MOLECULAR_WEIGHT>
430.6

> <PUBCHEM_OPENEYE_CAN_SMILES>
CCC(C)C(=O)OC1C2C(C(CC(C2=C)OC(=O)C=C(C)CC)C(C)C)C(=CC)C1=O

> <PUBCHEM_OPENEYE_ISO_SMILES>
CCC(C)C(=O)O[C@H]1[C@@H]2[C@H]([C@@H](C[C@H](C2=C)OC(=O)/C=C(\C)/CC)C(C)C)/C(=C\C)/C1=O

> <PUBCHEM_CACTVS_TPSA>
69.7

> <PUBCHEM_MONOISOTOPIC_WEIGHT>
430.27192431

> <PUBCHEM_TOTAL_CHARGE>
0

> <PUBCHEM_HEAVY_ATOM_COUNT>
31

> <PUBCHEM_ATOM_DEF_STEREO_COUNT>
5

> <PUBCHEM_ATOM_UDEF_STEREO_COUNT>
1

> <PUBCHEM_BOND_DEF_STEREO_COUNT>
2

> <PUBCHEM_BOND_UDEF_STEREO_COUNT>
0

> <PUBCHEM_ISOTOPIC_ATOM_COUNT>
0

> <PUBCHEM_COMPONENT_COUNT>
1

> <PUBCHEM_CACTVS_TAUTO_COUNT>
-1

> <PUBCHEM_COORDINATE_TYPE>
1
5
255

> <PUBCHEM_BONDANNOTATIONS>
10  1  5
11  2  6
23  26  3
6  32  5
7  13  5
8  34  6

$$$$
