51040899
  -OEChem-05162308172D

 58 60  0     1  0  0  0  0  0999 V2000
    6.0290    0.5774    0.0000 O   0  0  0  0  0  0  0  0  0  0  0  0
    6.0174    3.6467    0.0000 O   0  0  0  0  0  0  0  0  0  0  0  0
    6.9273   -0.9087    0.0000 O   0  0  0  0  0  0  0  0  0  0  0  0
    4.2690    3.6121    0.0000 O   0  0  0  0  0  0  0  0  0  0  0  0
    2.5369    0.6121    0.0000 O   0  0  0  0  0  0  0  0  0  0  0  0
    6.9350    1.0912    0.0000 C   0  0  1  0  0  0  0  0  0  0  0  0
    6.9350    2.1329    0.0000 C   0  0  0  0  0  0  0  0  0  0  0  0
    5.1350    1.1121    0.0000 C   0  0  0  0  0  0  0  0  0  0  0  0
    7.7991    0.5879    0.0000 C   0  0  0  0  0  0  0  0  0  0  0  0
    5.1350    2.1121    0.0000 C   0  0  0  0  0  0  0  0  0  0  0  0
    6.0290    2.6467    0.0000 C   0  0  0  0  0  0  0  0  0  0  0  0
    4.2690    0.6121    0.0000 C   0  0  0  0  0  0  0  0  0  0  0  0
    7.7953   -0.4121    0.0000 C   0  0  0  0  0  0  0  0  0  0  0  0
    4.2690    2.6121    0.0000 C   0  0  0  0  0  0  0  0  0  0  0  0
    4.2690   -0.3879    0.0000 C   0  0  0  0  0  0  0  0  0  0  0  0
    8.6671    1.0846    0.0000 C   0  0  0  0  0  0  0  0  0  0  0  0
    8.6594   -0.9154    0.0000 C   0  0  0  0  0  0  0  0  0  0  0  0
    3.4030    1.1121    0.0000 C   0  0  0  0  0  0  0  0  0  0  0  0
    3.4030    2.1121    0.0000 C   0  0  0  0  0  0  0  0  0  0  0  0
    8.6555   -1.9154    0.0000 C   0  0  0  0  0  0  0  0  0  0  0  0
    9.5273   -0.4188    0.0000 C   0  0  0  0  0  0  0  0  0  0  0  0
    9.5312    0.5812    0.0000 C   0  0  0  0  0  0  0  0  0  0  0  0
    3.4030   -0.8879    0.0000 C   0  0  0  0  0  0  0  0  0  0  0  0
    9.5196   -2.4187    0.0000 C   0  0  0  0  0  0  0  0  0  0  0  0
    3.4030   -1.8879    0.0000 C   0  0  0  0  0  0  0  0  0  0  0  0
    9.5157   -3.4187    0.0000 C   0  0  0  0  0  0  0  0  0  0  0  0
    2.5369   -2.3879    0.0000 C   0  0  0  0  0  0  0  0  0  0  0  0
    4.2690   -2.3879    0.0000 C   0  0  0  0  0  0  0  0  0  0  0  0
   10.3798   -3.9221    0.0000 C   0  0  0  0  0  0  0  0  0  0  0  0
    8.6478   -3.9154    0.0000 C   0  0  0  0  0  0  0  0  0  0  0  0
    7.6720    1.5148    0.0000 H   0  0  0  0  0  0  0  0  0  0  0  0
    7.5459    2.0268    0.0000 H   0  0  0  0  0  0  0  0  0  0  0  0
    7.1441    2.7166    0.0000 H   0  0  0  0  0  0  0  0  0  0  0  0
    4.4810   -0.9705    0.0000 H   0  0  0  0  0  0  0  0  0  0  0  0
    4.8796   -0.2803    0.0000 H   0  0  0  0  0  0  0  0  0  0  0  0
    8.6694    1.7046    0.0000 H   0  0  0  0  0  0  0  0  0  0  0  0
    2.8660    2.4221    0.0000 H   0  0  0  0  0  0  0  0  0  0  0  0
    8.0453   -1.8054    0.0000 H   0  0  0  0  0  0  0  0  0  0  0  0
    8.4412   -2.4972    0.0000 H   0  0  0  0  0  0  0  0  0  0  0  0
   10.0630   -0.7308    0.0000 H   0  0  0  0  0  0  0  0  0  0  0  0
   10.0693    0.8892    0.0000 H   0  0  0  0  0  0  0  0  0  0  0  0
    2.8660   -0.5779    0.0000 H   0  0  0  0  0  0  0  0  0  0  0  0
   10.0577   -2.1108    0.0000 H   0  0  0  0  0  0  0  0  0  0  0  0
    6.9249   -1.5287    0.0000 H   0  0  0  0  0  0  0  0  0  0  0  0
    3.7320    3.9221    0.0000 H   0  0  0  0  0  0  0  0  0  0  0  0
    2.0000    0.9221    0.0000 H   0  0  0  0  0  0  0  0  0  0  0  0
    2.2269   -1.8510    0.0000 H   0  0  0  0  0  0  0  0  0  0  0  0
    2.0000   -2.6979    0.0000 H   0  0  0  0  0  0  0  0  0  0  0  0
    2.8469   -2.9249    0.0000 H   0  0  0  0  0  0  0  0  0  0  0  0
    3.9590   -2.9249    0.0000 H   0  0  0  0  0  0  0  0  0  0  0  0
    4.8059   -2.6979    0.0000 H   0  0  0  0  0  0  0  0  0  0  0  0
    4.5790   -1.8510    0.0000 H   0  0  0  0  0  0  0  0  0  0  0  0
   10.0678   -4.4578    0.0000 H   0  0  0  0  0  0  0  0  0  0  0  0
   10.9156   -4.2341    0.0000 H   0  0  0  0  0  0  0  0  0  0  0  0
   10.6919   -3.3863    0.0000 H   0  0  0  0  0  0  0  0  0  0  0  0
    8.3399   -3.3773    0.0000 H   0  0  0  0  0  0  0  0  0  0  0  0
    8.1097   -4.2233    0.0000 H   0  0  0  0  0  0  0  0  0  0  0  0
    8.9557   -4.4535    0.0000 H   0  0  0  0  0  0  0  0  0  0  0  0
  1  6  1  0  0  0  0
  1  8  1  0  0  0  0
  2 11  2  0  0  0  0
  3 13  1  0  0  0  0
  3 44  1  0  0  0  0
  4 14  1  0  0  0  0
  4 45  1  0  0  0  0
  5 18  1  0  0  0  0
  5 46  1  0  0  0  0
  6  7  1  0  0  0  0
  6  9  1  0  0  0  0
  6 31  1  6  0  0  0
  7 11  1  0  0  0  0
  7 32  1  0  0  0  0
  7 33  1  0  0  0  0
  8 10  1  0  0  0  0
  8 12  2  0  0  0  0
  9 13  1  0  0  0  0
  9 16  2  0  0  0  0
 10 11  1  0  0  0  0
 10 14  2  0  0  0  0
 12 15  1  0  0  0  0
 12 18  1  0  0  0  0
 13 17  2  0  0  0  0
 14 19  1  0  0  0  0
 15 23  1  0  0  0  0
 15 34  1  0  0  0  0
 15 35  1  0  0  0  0
 16 22  1  0  0  0  0
 16 36  1  0  0  0  0
 17 20  1  0  0  0  0
 17 21  1  0  0  0  0
 18 19  2  0  0  0  0
 19 37  1  0  0  0  0
 20 24  1  0  0  0  0
 20 38  1  0  0  0  0
 20 39  1  0  0  0  0
 21 22  2  0  0  0  0
 21 40  1  0  0  0  0
 22 41  1  0  0  0  0
 23 25  2  0  0  0  0
 23 42  1  0  0  0  0
 24 26  2  0  0  0  0
 24 43  1  0  0  0  0
 25 27  1  0  0  0  0
 25 28  1  0  0  0  0
 26 29  1  0  0  0  0
 26 30  1  0  0  0  0
 27 47  1  0  0  0  0
 27 48  1  0  0  0  0
 27 49  1  0  0  0  0
 28 50  1  0  0  0  0
 28 51  1  0  0  0  0
 28 52  1  0  0  0  0
 29 53  1  0  0  0  0
 29 54  1  0  0  0  0
 29 55  1  0  0  0  0
 30 56  1  0  0  0  0
 30 57  1  0  0  0  0
 30 58  1  0  0  0  0
M  END
> <PUBCHEM_COMPOUND_CID>
51040899

> <PUBCHEM_COMPOUND_CANONICALIZED>
1

> <PUBCHEM_CACTVS_COMPLEXITY>
661

> <PUBCHEM_CACTVS_HBOND_ACCEPTOR>
5

> <PUBCHEM_CACTVS_HBOND_DONOR>
3

> <PUBCHEM_CACTVS_ROTATABLE_BOND>
5

> <PUBCHEM_CACTVS_SUBSKEYS>
AAADceB4OAAAAAAAAAAAAAAAAAAAAAAAAAA0YIAAAAAAAACRQAAAGgAACAAADBSgmAIyBoAABgCIAqBSAAACCAAkIAAIiAEGCMgMJzaGNRqCeWCl4BUIuQeI7OzOIAACCAAIAABAAAQQABAAAAAAAAAAAA==

> <PUBCHEM_IUPAC_OPENEYE_NAME>
(2S)-5,7-dihydroxy-2-[2-hydroxy-3-(3-methylbut-2-enyl)phenyl]-8-(3-methylbut-2-enyl)chroman-4-one

> <PUBCHEM_IUPAC_CAS_NAME>
(2S)-5,7-dihydroxy-2-[2-hydroxy-3-(3-methylbut-2-enyl)phenyl]-8-(3-methylbut-2-enyl)-3,4-dihydro-2H-1-benzopyran-4-one

> <PUBCHEM_IUPAC_NAME_MARKUP>
(2<I>S</I>)-5,7-dihydroxy-2-[2-hydroxy-3-(3-methylbut-2-enyl)phenyl]-8-(3-methylbut-2-enyl)-2,3-dihydrochromen-4-one

> <PUBCHEM_IUPAC_NAME>
(2S)-5,7-dihydroxy-2-[2-hydroxy-3-(3-methylbut-2-enyl)phenyl]-8-(3-methylbut-2-enyl)-2,3-dihydrochromen-4-one

> <PUBCHEM_IUPAC_SYSTEMATIC_NAME>
(2S)-8-(3-methylbut-2-enyl)-2-[3-(3-methylbut-2-enyl)-2-oxidanyl-phenyl]-5,7-bis(oxidanyl)-2,3-dihydrochromen-4-one

> <PUBCHEM_IUPAC_TRADITIONAL_NAME>
(2S)-5,7-dihydroxy-2-[2-hydroxy-3-(3-methylbut-2-enyl)phenyl]-8-(3-methylbut-2-enyl)chroman-4-one

> <PUBCHEM_IUPAC_INCHI>
InChI=1S/C25H28O5/c1-14(2)8-10-16-6-5-7-18(24(16)29)22-13-21(28)23-20(27)12-19(26)17(25(23)30-22)11-9-15(3)4/h5-9,12,22,26-27,29H,10-11,13H2,1-4H3/t22-/m0/s1

> <PUBCHEM_IUPAC_INCHIKEY>
SWLGFCRAFOKHQK-QFIPXVFZSA-N

> <PUBCHEM_XLOGP3_AA>
6.2

> <PUBCHEM_EXACT_MASS>
408.19367399

> <PUBCHEM_MOLECULAR_FORMULA>
C25H28O5

> <PUBCHEM_MOLECULAR_WEIGHT>
408.5

> <PUBCHEM_OPENEYE_CAN_SMILES>
CC(=CCC1=C(C(=CC=C1)C2CC(=O)C3=C(C=C(C(=C3O2)CC=C(C)C)O)O)O)C

> <PUBCHEM_OPENEYE_ISO_SMILES>
CC(=CCC1=C(C(=CC=C1)[C@@H]2CC(=O)C3=C(C=C(C(=C3O2)CC=C(C)C)O)O)O)C

> <PUBCHEM_CACTVS_TPSA>
87

> <PUBCHEM_MONOISOTOPIC_WEIGHT>
408.19367399

> <PUBCHEM_TOTAL_CHARGE>
0

> <PUBCHEM_HEAVY_ATOM_COUNT>
30

> <PUBCHEM_ATOM_DEF_STEREO_COUNT>
1

> <PUBCHEM_ATOM_UDEF_STEREO_COUNT>
0

> <PUBCHEM_BOND_DEF_STEREO_COUNT>
0

> <PUBCHEM_BOND_UDEF_STEREO_COUNT>
0

> <PUBCHEM_ISOTOPIC_ATOM_COUNT>
0

> <PUBCHEM_COMPONENT_COUNT>
1

> <PUBCHEM_CACTVS_TAUTO_COUNT>
-1

> <PUBCHEM_COORDINATE_TYPE>
1
5
255

> <PUBCHEM_BONDANNOTATIONS>
10  14  8
12  18  8
13  17  8
14  19  8
16  22  8
17  21  8
18  19  8
21  22  8
6  31  6
8  10  8
8  12  8
9  13  8
9  16  8

$$$$
