25016670
  -OEChem-05162308502D

 43 44  0     1  0  0  0  0  0999 V2000
    4.7690   -1.5000    0.0000 O   0  0  0  0  0  0  0  0  0  0  0  0
    2.5369   -0.6340    0.0000 O   0  0  0  0  0  0  0  0  0  0  0  0
    5.1350    0.8660    0.0000 C   0  0  2  0  0  0  0  0  0  0  0  0
    5.1350   -0.1340    0.0000 C   0  0  1  0  0  0  0  0  0  0  0  0
    4.2690   -0.6340    0.0000 C   0  0  2  0  0  0  0  0  0  0  0  0
    4.2690    1.3660    0.0000 C   0  0  1  0  0  0  0  0  0  0  0  0
    3.4030   -0.1340    0.0000 C   0  0  2  0  0  0  0  0  0  0  0  0
    3.4030    0.8660    0.0000 C   0  0  0  0  0  0  0  0  0  0  0  0
    6.0290    1.4007    0.0000 C   0  0  0  0  0  0  0  0  0  0  0  0
    3.7690   -1.5000    0.0000 C   0  0  0  0  0  0  0  0  0  0  0  0
    6.0290   -0.6686    0.0000 C   0  0  0  0  0  0  0  0  0  0  0  0
    6.9350    0.8868    0.0000 C   0  0  0  0  0  0  0  0  0  0  0  0
    4.2690    2.3660    0.0000 C   0  0  0  0  0  0  0  0  0  0  0  0
    6.9350   -0.1548    0.0000 C   0  0  0  0  0  0  0  0  0  0  0  0
    4.2690   -2.3660    0.0000 C   0  0  0  0  0  0  0  0  0  0  0  0
    2.7690   -1.5000    0.0000 C   0  0  0  0  0  0  0  0  0  0  0  0
    7.7991   -0.6581    0.0000 C   0  0  0  0  0  0  0  0  0  0  0  0
    5.8744    0.4467    0.0000 H   0  0  0  0  0  0  0  0  0  0  0  0
    5.1285   -0.9839    0.0000 H   0  0  0  0  0  0  0  0  0  0  0  0
    4.8059    1.6760    0.0000 H   0  0  0  0  0  0  0  0  0  0  0  0
    3.4030   -0.7540    0.0000 H   0  0  0  0  0  0  0  0  0  0  0  0
    3.1909    1.4486    0.0000 H   0  0  0  0  0  0  0  0  0  0  0  0
    2.7924    0.7584    0.0000 H   0  0  0  0  0  0  0  0  0  0  0  0
    6.4226    1.8797    0.0000 H   0  0  0  0  0  0  0  0  0  0  0  0
    5.6244    1.8705    0.0000 H   0  0  0  0  0  0  0  0  0  0  0  0
    3.4590   -0.9631    0.0000 H   0  0  0  0  0  0  0  0  0  0  0  0
    6.0218   -1.2886    0.0000 H   0  0  0  0  0  0  0  0  0  0  0  0
    7.5459    0.7807    0.0000 H   0  0  0  0  0  0  0  0  0  0  0  0
    7.1441    1.4705    0.0000 H   0  0  0  0  0  0  0  0  0  0  0  0
    4.8890    2.3660    0.0000 H   0  0  0  0  0  0  0  0  0  0  0  0
    4.2690    2.9860    0.0000 H   0  0  0  0  0  0  0  0  0  0  0  0
    3.6490    2.3660    0.0000 H   0  0  0  0  0  0  0  0  0  0  0  0
    5.3890   -1.5000    0.0000 H   0  0  0  0  0  0  0  0  0  0  0  0
    3.7320   -2.6760    0.0000 H   0  0  0  0  0  0  0  0  0  0  0  0
    4.5790   -2.9030    0.0000 H   0  0  0  0  0  0  0  0  0  0  0  0
    4.8059   -2.0560    0.0000 H   0  0  0  0  0  0  0  0  0  0  0  0
    2.7690   -0.8800    0.0000 H   0  0  0  0  0  0  0  0  0  0  0  0
    2.1490   -1.5000    0.0000 H   0  0  0  0  0  0  0  0  0  0  0  0
    2.7690   -2.1200    0.0000 H   0  0  0  0  0  0  0  0  0  0  0  0
    2.0000   -0.3240    0.0000 H   0  0  0  0  0  0  0  0  0  0  0  0
    7.4870   -1.1939    0.0000 H   0  0  0  0  0  0  0  0  0  0  0  0
    8.3348   -0.9702    0.0000 H   0  0  0  0  0  0  0  0  0  0  0  0
    8.1112   -0.1224    0.0000 H   0  0  0  0  0  0  0  0  0  0  0  0
  5  1  1  1  0  0  0
  1 33  1  0  0  0  0
  7  2  1  1  0  0  0
  2 40  1  0  0  0  0
  3  4  1  0  0  0  0
  3  6  1  0  0  0  0
  3  9  1  0  0  0  0
  3 18  1  1  0  0  0
  4  5  1  0  0  0  0
  4 11  1  0  0  0  0
  4 19  1  1  0  0  0
  5  7  1  0  0  0  0
  5 10  1  0  0  0  0
  6  8  1  0  0  0  0
  6 13  1  1  0  0  0
  6 20  1  0  0  0  0
  7  8  1  0  0  0  0
  7 21  1  0  0  0  0
  8 22  1  0  0  0  0
  8 23  1  0  0  0  0
  9 12  1  0  0  0  0
  9 24  1  0  0  0  0
  9 25  1  0  0  0  0
 10 15  1  0  0  0  0
 10 16  1  0  0  0  0
 10 26  1  0  0  0  0
 11 14  2  0  0  0  0
 11 27  1  0  0  0  0
 12 14  1  0  0  0  0
 12 28  1  0  0  0  0
 12 29  1  0  0  0  0
 13 30  1  0  0  0  0
 13 31  1  0  0  0  0
 13 32  1  0  0  0  0
 14 17  1  0  0  0  0
 15 34  1  0  0  0  0
 15 35  1  0  0  0  0
 15 36  1  0  0  0  0
 16 37  1  0  0  0  0
 16 38  1  0  0  0  0
 16 39  1  0  0  0  0
 17 41  1  0  0  0  0
 17 42  1  0  0  0  0
 17 43  1  0  0  0  0
M  END
> <PUBCHEM_COMPOUND_CID>
25016670

> <PUBCHEM_COMPOUND_CANONICALIZED>
1

> <PUBCHEM_CACTVS_COMPLEXITY>
321

> <PUBCHEM_CACTVS_HBOND_ACCEPTOR>
2

> <PUBCHEM_CACTVS_HBOND_DONOR>
2

> <PUBCHEM_CACTVS_ROTATABLE_BOND>
1

> <PUBCHEM_CACTVS_SUBSKEYS>
AAADceBwMAAAAAAAAAAAAAAAAAAAAAAAAAAwQAAAAAAAAACAAAAAGgAACAAADVSggAICAAAAAgCAAiBCAAAAAAAgAAAACAAAAAgBEAIAAQAAQAAEwAAJAAOAwPAOgAAAAAAAAADAAAYAADCAAAAAAAAAAA==

> <PUBCHEM_IUPAC_OPENEYE_NAME>
(1R,2S,4R,4aS,8aR)-1-isopropyl-4,7-dimethyl-3,4,4a,5,6,8a-hexahydro-2H-naphthalene-1,2-diol

> <PUBCHEM_IUPAC_CAS_NAME>
(1R,2S,4R,4aS,8aR)-4,7-dimethyl-1-propan-2-yl-3,4,4a,5,6,8a-hexahydro-2H-naphthalene-1,2-diol

> <PUBCHEM_IUPAC_NAME_MARKUP>
(1<I>R</I>,2<I>S</I>,4<I>R</I>,4<I>a</I><I>S</I>,8<I>a</I><I>R</I>)-4,7-dimethyl-1-propan-2-yl-3,4,4<I>a</I>,5,6,8<I>a</I>-hexahydro-2<I>H</I>-naphthalene-1,2-diol

> <PUBCHEM_IUPAC_NAME>
(1R,2S,4R,4aS,8aR)-4,7-dimethyl-1-propan-2-yl-3,4,4a,5,6,8a-hexahydro-2H-naphthalene-1,2-diol

> <PUBCHEM_IUPAC_SYSTEMATIC_NAME>
(1R,2S,4R,4aS,8aR)-4,7-dimethyl-1-propan-2-yl-3,4,4a,5,6,8a-hexahydro-2H-naphthalene-1,2-diol

> <PUBCHEM_IUPAC_TRADITIONAL_NAME>
(1R,2S,4R,4aS,8aR)-1-isopropyl-4,7-dimethyl-3,4,4a,5,6,8a-hexahydro-2H-naphthalene-1,2-diol

> <PUBCHEM_IUPAC_INCHI>
InChI=1S/C15H26O2/c1-9(2)15(17)13-7-10(3)5-6-12(13)11(4)8-14(15)16/h7,9,11-14,16-17H,5-6,8H2,1-4H3/t11-,12+,13+,14+,15-/m1/s1

> <PUBCHEM_IUPAC_INCHIKEY>
ZGSRWTHKVMRAML-CAEXGNQWSA-N

> <PUBCHEM_XLOGP3_AA>
2.7

> <PUBCHEM_EXACT_MASS>
238.193280068

> <PUBCHEM_MOLECULAR_FORMULA>
C15H26O2

> <PUBCHEM_MOLECULAR_WEIGHT>
238.37

> <PUBCHEM_OPENEYE_CAN_SMILES>
CC1CC(C(C2C1CCC(=C2)C)(C(C)C)O)O

> <PUBCHEM_OPENEYE_ISO_SMILES>
C[C@@H]1C[C@@H]([C@]([C@@H]2[C@H]1CCC(=C2)C)(C(C)C)O)O

> <PUBCHEM_CACTVS_TPSA>
40.5

> <PUBCHEM_MONOISOTOPIC_WEIGHT>
238.193280068

> <PUBCHEM_TOTAL_CHARGE>
0

> <PUBCHEM_HEAVY_ATOM_COUNT>
17

> <PUBCHEM_ATOM_DEF_STEREO_COUNT>
5

> <PUBCHEM_ATOM_UDEF_STEREO_COUNT>
0

> <PUBCHEM_BOND_DEF_STEREO_COUNT>
0

> <PUBCHEM_BOND_UDEF_STEREO_COUNT>
0

> <PUBCHEM_ISOTOPIC_ATOM_COUNT>
0

> <PUBCHEM_COMPONENT_COUNT>
1

> <PUBCHEM_CACTVS_TAUTO_COUNT>
-1

> <PUBCHEM_COORDINATE_TYPE>
1
5
255

> <PUBCHEM_BONDANNOTATIONS>
5  1  5
7  2  5
3  18  5
4  19  5
6  13  5

$$$$
