90670221
  -OEChem-05162308582D

 54 55  0     1  0  0  0  0  0999 V2000
    2.5369   -2.6432    0.0000 O   0  0  0  0  0  0  0  0  0  0  0  0
    3.4030   -1.1432    0.0000 O   0  0  0  0  0  0  0  0  0  0  0  0
    6.8671    0.8568    0.0000 C   0  0  1  0  0  0  0  0  0  0  0  0
    6.8671    1.8568    0.0000 C   0  0  2  0  0  0  0  0  0  0  0  0
    7.7610    2.3915    0.0000 C   0  0  0  0  0  0  0  0  0  0  0  0
    6.0010    0.3568    0.0000 C   0  0  2  0  0  0  0  0  0  0  0  0
    7.7610    0.3221    0.0000 C   0  0  0  0  0  0  0  0  0  0  0  0
    8.6671    1.8776    0.0000 C   0  0  0  0  0  0  0  0  0  0  0  0
    6.0010    2.3568    0.0000 C   0  0  0  0  0  0  0  0  0  0  0  0
    8.6671    0.8360    0.0000 C   0  0  0  0  0  0  0  0  0  0  0  0
    6.8671   -0.1432    0.0000 C   0  0  0  0  0  0  0  0  0  0  0  0
    5.1350    0.8568    0.0000 C   0  0  0  0  0  0  0  0  0  0  0  0
    6.0010   -0.6432    0.0000 C   0  0  0  0  0  0  0  0  0  0  0  0
    8.2510    3.2632    0.0000 C   0  0  0  0  0  0  0  0  0  0  0  0
    7.2510    3.2516    0.0000 C   0  0  0  0  0  0  0  0  0  0  0  0
    5.1350    1.8568    0.0000 C   0  0  0  0  0  0  0  0  0  0  0  0
    5.1350   -1.1432    0.0000 C   0  0  0  0  0  0  0  0  0  0  0  0
    4.2690    0.3568    0.0000 C   0  0  0  0  0  0  0  0  0  0  0  0
    5.1350   -2.1432    0.0000 C   0  0  0  0  0  0  0  0  0  0  0  0
    6.0010   -2.6432    0.0000 C   0  0  0  0  0  0  0  0  0  0  0  0
    4.2690   -2.6432    0.0000 C   0  0  0  0  0  0  0  0  0  0  0  0
    3.4030   -2.1432    0.0000 C   0  0  0  0  0  0  0  0  0  0  0  0
    6.8605    2.7068    0.0000 H   0  0  0  0  0  0  0  0  0  0  0  0
    5.4641    0.0468    0.0000 H   0  0  0  0  0  0  0  0  0  0  0  0
    7.3564   -0.1477    0.0000 H   0  0  0  0  0  0  0  0  0  0  0  0
    8.1546   -0.1569    0.0000 H   0  0  0  0  0  0  0  0  0  0  0  0
    9.2779    1.7715    0.0000 H   0  0  0  0  0  0  0  0  0  0  0  0
    8.8761    2.4613    0.0000 H   0  0  0  0  0  0  0  0  0  0  0  0
    6.3996    2.8317    0.0000 H   0  0  0  0  0  0  0  0  0  0  0  0
    5.6025    2.8317    0.0000 H   0  0  0  0  0  0  0  0  0  0  0  0
    8.8761    0.2523    0.0000 H   0  0  0  0  0  0  0  0  0  0  0  0
    9.2779    0.9421    0.0000 H   0  0  0  0  0  0  0  0  0  0  0  0
    6.2471   -0.1432    0.0000 H   0  0  0  0  0  0  0  0  0  0  0  0
    6.8671   -0.7632    0.0000 H   0  0  0  0  0  0  0  0  0  0  0  0
    7.4871   -0.1432    0.0000 H   0  0  0  0  0  0  0  0  0  0  0  0
    6.2131   -1.2258    0.0000 H   0  0  0  0  0  0  0  0  0  0  0  0
    6.6116   -0.5355    0.0000 H   0  0  0  0  0  0  0  0  0  0  0  0
    8.7914    2.9594    0.0000 H   0  0  0  0  0  0  0  0  0  0  0  0
    8.5547    3.8037    0.0000 H   0  0  0  0  0  0  0  0  0  0  0  0
    7.7105    3.5670    0.0000 H   0  0  0  0  0  0  0  0  0  0  0  0
    7.7843    3.5678    0.0000 H   0  0  0  0  0  0  0  0  0  0  0  0
    6.9348    3.7850    0.0000 H   0  0  0  0  0  0  0  0  0  0  0  0
    6.7177    2.9354    0.0000 H   0  0  0  0  0  0  0  0  0  0  0  0
    4.5981    2.1668    0.0000 H   0  0  0  0  0  0  0  0  0  0  0  0
    4.9230   -0.5606    0.0000 H   0  0  0  0  0  0  0  0  0  0  0  0
    4.5244   -1.2509    0.0000 H   0  0  0  0  0  0  0  0  0  0  0  0
    3.9590    0.8937    0.0000 H   0  0  0  0  0  0  0  0  0  0  0  0
    3.7320    0.0468    0.0000 H   0  0  0  0  0  0  0  0  0  0  0  0
    4.5790   -0.1801    0.0000 H   0  0  0  0  0  0  0  0  0  0  0  0
    5.6910   -3.1801    0.0000 H   0  0  0  0  0  0  0  0  0  0  0  0
    6.5380   -2.9532    0.0000 H   0  0  0  0  0  0  0  0  0  0  0  0
    6.3110   -2.1063    0.0000 H   0  0  0  0  0  0  0  0  0  0  0  0
    4.2690   -3.2632    0.0000 H   0  0  0  0  0  0  0  0  0  0  0  0
    2.0000   -2.3332    0.0000 H   0  0  0  0  0  0  0  0  0  0  0  0
  1 22  1  0  0  0  0
  1 54  1  0  0  0  0
  2 22  2  0  0  0  0
  3  4  1  0  0  0  0
  3  6  1  0  0  0  0
  3  7  1  0  0  0  0
  3 11  1  1  0  0  0
  4  5  1  0  0  0  0
  4  9  1  0  0  0  0
  4 23  1  6  0  0  0
  5  8  1  0  0  0  0
  5 14  1  0  0  0  0
  5 15  1  0  0  0  0
  6 12  1  0  0  0  0
  6 13  1  1  0  0  0
  6 24  1  0  0  0  0
  7 10  1  0  0  0  0
  7 25  1  0  0  0  0
  7 26  1  0  0  0  0
  8 10  1  0  0  0  0
  8 27  1  0  0  0  0
  8 28  1  0  0  0  0
  9 16  1  0  0  0  0
  9 29  1  0  0  0  0
  9 30  1  0  0  0  0
 10 31  1  0  0  0  0
 10 32  1  0  0  0  0
 11 33  1  0  0  0  0
 11 34  1  0  0  0  0
 11 35  1  0  0  0  0
 12 16  2  0  0  0  0
 12 18  1  0  0  0  0
 13 17  1  0  0  0  0
 13 36  1  0  0  0  0
 13 37  1  0  0  0  0
 14 38  1  0  0  0  0
 14 39  1  0  0  0  0
 14 40  1  0  0  0  0
 15 41  1  0  0  0  0
 15 42  1  0  0  0  0
 15 43  1  0  0  0  0
 16 44  1  0  0  0  0
 17 19  1  0  0  0  0
 17 45  1  0  0  0  0
 17 46  1  0  0  0  0
 18 47  1  0  0  0  0
 18 48  1  0  0  0  0
 18 49  1  0  0  0  0
 19 20  1  0  0  0  0
 19 21  2  0  0  0  0
 20 50  1  0  0  0  0
 20 51  1  0  0  0  0
 20 52  1  0  0  0  0
 21 22  1  0  0  0  0
 21 53  1  0  0  0  0
M  END
> <PUBCHEM_COMPOUND_CID>
90670221

> <PUBCHEM_COMPOUND_CANONICALIZED>
1

> <PUBCHEM_CACTVS_COMPLEXITY>
498

> <PUBCHEM_CACTVS_HBOND_ACCEPTOR>
2

> <PUBCHEM_CACTVS_HBOND_DONOR>
1

> <PUBCHEM_CACTVS_ROTATABLE_BOND>
4

> <PUBCHEM_CACTVS_SUBSKEYS>
AAADcfB4MAAAAAAAAAAAAAAAAAAAAAAAAAAwQAAAAAAAAACAAAAAGgAACAAADwCAgAACCAAAAgCIAiDSCAAAAAAgAAAACAAAAEgABAIAAQAAEAAAgAAIEQMAgMAPgAAAAAAAAAAAAAQAACAAAAAAAAAAAA==

> <PUBCHEM_IUPAC_OPENEYE_NAME>
(Z)-5-[(1S,4aS,8aS)-2,5,5,8a-tetramethyl-1,4,4a,6,7,8-hexahydronaphthalen-1-yl]-3-methyl-pent-2-enoic acid

> <PUBCHEM_IUPAC_CAS_NAME>
(Z)-5-[(1S,4aS,8aS)-2,5,5,8a-tetramethyl-1,4,4a,6,7,8-hexahydronaphthalen-1-yl]-3-methyl-2-pentenoic acid

> <PUBCHEM_IUPAC_NAME_MARKUP>
(<I>Z</I>)-5-[(1<I>S</I>,4<I>a</I><I>S</I>,8<I>a</I><I>S</I>)-2,5,5,8<I>a</I>-tetramethyl-1,4,4<I>a</I>,6,7,8-hexahydronaphthalen-1-yl]-3-methylpent-2-enoic acid

> <PUBCHEM_IUPAC_NAME>
(Z)-5-[(1S,4aS,8aS)-2,5,5,8a-tetramethyl-1,4,4a,6,7,8-hexahydronaphthalen-1-yl]-3-methylpent-2-enoic acid

> <PUBCHEM_IUPAC_SYSTEMATIC_NAME>
(Z)-5-[(1S,4aS,8aS)-2,5,5,8a-tetramethyl-1,4,4a,6,7,8-hexahydronaphthalen-1-yl]-3-methyl-pent-2-enoic acid

> <PUBCHEM_IUPAC_TRADITIONAL_NAME>
(Z)-5-[(1S,4aS,8aS)-2,5,5,8a-tetramethyl-1,4,4a,6,7,8-hexahydronaphthalen-1-yl]-3-methyl-pent-2-enoic acid

> <PUBCHEM_IUPAC_INCHI>
InChI=1S/C20H32O2/c1-14(13-18(21)22)7-9-16-15(2)8-10-17-19(3,4)11-6-12-20(16,17)5/h8,13,16-17H,6-7,9-12H2,1-5H3,(H,21,22)/b14-13-/t16-,17-,20+/m0/s1

> <PUBCHEM_IUPAC_INCHIKEY>
YUYHINCTHBQFIT-AZQUDNSPSA-N

> <PUBCHEM_XLOGP3_AA>
6

> <PUBCHEM_EXACT_MASS>
304.240230259

> <PUBCHEM_MOLECULAR_FORMULA>
C20H32O2

> <PUBCHEM_MOLECULAR_WEIGHT>
304.5

> <PUBCHEM_OPENEYE_CAN_SMILES>
CC1=CCC2C(CCCC2(C1CCC(=CC(=O)O)C)C)(C)C

> <PUBCHEM_OPENEYE_ISO_SMILES>
CC1=CC[C@@H]2[C@@]([C@H]1CC/C(=C\C(=O)O)/C)(CCCC2(C)C)C

> <PUBCHEM_CACTVS_TPSA>
37.3

> <PUBCHEM_MONOISOTOPIC_WEIGHT>
304.240230259

> <PUBCHEM_TOTAL_CHARGE>
0

> <PUBCHEM_HEAVY_ATOM_COUNT>
22

> <PUBCHEM_ATOM_DEF_STEREO_COUNT>
3

> <PUBCHEM_ATOM_UDEF_STEREO_COUNT>
0

> <PUBCHEM_BOND_DEF_STEREO_COUNT>
1

> <PUBCHEM_BOND_UDEF_STEREO_COUNT>
0

> <PUBCHEM_ISOTOPIC_ATOM_COUNT>
0

> <PUBCHEM_COMPONENT_COUNT>
1

> <PUBCHEM_CACTVS_TAUTO_COUNT>
-1

> <PUBCHEM_COORDINATE_TYPE>
1
5
255

> <PUBCHEM_BONDANNOTATIONS>
3  11  5
4  23  6
6  13  5

$$$$
