44395365
  -OEChem-05162310132D

 50 52  0     1  0  0  0  0  0999 V2000
    7.6962    3.0880    0.0000 O   0  0  0  0  0  0  0  0  0  0  0  0
    5.9641    5.0880    0.0000 O   0  0  0  0  0  0  0  0  0  0  0  0
    6.3301    0.7220    0.0000 O   0  0  0  0  0  0  0  0  0  0  0  0
    4.5981   -0.2780    0.0000 O   0  0  0  0  0  0  0  0  0  0  0  0
    5.0981    6.5880    0.0000 O   0  0  0  0  0  0  0  0  0  0  0  0
    2.8660   -0.2780    0.0000 O   0  0  0  0  0  0  0  0  0  0  0  0
    2.8660   -6.2780    0.0000 O   0  0  0  0  0  0  0  0  0  0  0  0
    5.9641    3.0880    0.0000 C   0  0  2  0  0  0  0  0  0  0  0  0
    5.4641    2.2220    0.0000 C   0  0  2  0  0  0  0  0  0  0  0  0
    4.9641    3.0880    0.0000 C   0  0  0  0  0  0  0  0  0  0  0  0
    6.8301    3.5880    0.0000 C   0  0  1  0  0  0  0  0  0  0  0  0
    5.4641    1.2220    0.0000 C   0  0  0  0  0  0  0  0  0  0  0  0
    6.8301    4.5880    0.0000 C   0  0  1  0  0  0  0  0  0  0  0  0
    4.5981    0.7220    0.0000 C   0  0  3  0  0  0  0  0  0  0  0  0
    7.6962    5.0880    0.0000 C   0  0  0  0  0  0  0  0  0  0  0  0
    3.7320    1.2220    0.0000 C   0  0  0  0  0  0  0  0  0  0  0  0
    7.6962    6.0880    0.0000 C   0  0  0  0  0  0  0  0  0  0  0  0
    5.9641    6.0880    0.0000 C   0  0  0  0  0  0  0  0  0  0  0  0
    6.8301    6.5880    0.0000 C   0  0  0  0  0  0  0  0  0  0  0  0
    3.7320   -0.7780    0.0000 C   0  0  0  0  0  0  0  0  0  0  0  0
    3.7320   -1.7780    0.0000 C   0  0  0  0  0  0  0  0  0  0  0  0
    2.8660   -2.2780    0.0000 C   0  0  0  0  0  0  0  0  0  0  0  0
    2.8660   -3.2780    0.0000 C   0  0  0  0  0  0  0  0  0  0  0  0
    3.7320   -3.7780    0.0000 C   0  0  0  0  0  0  0  0  0  0  0  0
    2.0000   -3.7780    0.0000 C   0  0  0  0  0  0  0  0  0  0  0  0
    3.7320   -4.7780    0.0000 C   0  0  0  0  0  0  0  0  0  0  0  0
    2.0000   -4.7780    0.0000 C   0  0  0  0  0  0  0  0  0  0  0  0
    2.8660   -5.2780    0.0000 C   0  0  0  0  0  0  0  0  0  0  0  0
    5.7441    3.9090    0.0000 H   0  0  0  0  0  0  0  0  0  0  0  0
    6.0630    2.0615    0.0000 H   0  0  0  0  0  0  0  0  0  0  0  0
    4.8564    3.6986    0.0000 H   0  0  0  0  0  0  0  0  0  0  0  0
    4.3815    2.8760    0.0000 H   0  0  0  0  0  0  0  0  0  0  0  0
    7.3671    3.8980    0.0000 H   0  0  0  0  0  0  0  0  0  0  0  0
    6.0940    4.1630    0.0000 H   0  0  0  0  0  0  0  0  0  0  0  0
    5.1350    0.4120    0.0000 H   0  0  0  0  0  0  0  0  0  0  0  0
    7.9082    4.5054    0.0000 H   0  0  0  0  0  0  0  0  0  0  0  0
    8.3067    5.1957    0.0000 H   0  0  0  0  0  0  0  0  0  0  0  0
    8.2331    3.3980    0.0000 H   0  0  0  0  0  0  0  0  0  0  0  0
    4.0420    1.7589    0.0000 H   0  0  0  0  0  0  0  0  0  0  0  0
    3.1951    1.5320    0.0000 H   0  0  0  0  0  0  0  0  0  0  0  0
    3.4220    0.6851    0.0000 H   0  0  0  0  0  0  0  0  0  0  0  0
    8.2331    6.3980    0.0000 H   0  0  0  0  0  0  0  0  0  0  0  0
    6.8301    7.2080    0.0000 H   0  0  0  0  0  0  0  0  0  0  0  0
    4.2690   -2.0880    0.0000 H   0  0  0  0  0  0  0  0  0  0  0  0
    2.3291   -1.9680    0.0000 H   0  0  0  0  0  0  0  0  0  0  0  0
    4.2690   -3.4680    0.0000 H   0  0  0  0  0  0  0  0  0  0  0  0
    1.4631   -3.4680    0.0000 H   0  0  0  0  0  0  0  0  0  0  0  0
    4.2690   -5.0880    0.0000 H   0  0  0  0  0  0  0  0  0  0  0  0
    1.4631   -5.0880    0.0000 H   0  0  0  0  0  0  0  0  0  0  0  0
    2.3291   -6.5880    0.0000 H   0  0  0  0  0  0  0  0  0  0  0  0
 11  1  1  1  0  0  0
  1 38  1  0  0  0  0
  2 13  1  0  0  0  0
  2 18  1  0  0  0  0
  3 12  2  0  0  0  0
  4 14  1  0  0  0  0
  4 20  1  0  0  0  0
  5 18  2  0  0  0  0
  6 20  2  0  0  0  0
  7 28  1  0  0  0  0
  7 50  1  0  0  0  0
  8  9  1  0  0  0  0
  8 10  1  0  0  0  0
  8 11  1  0  0  0  0
  8 29  1  1  0  0  0
  9 10  1  0  0  0  0
  9 12  1  1  0  0  0
  9 30  1  0  0  0  0
 10 31  1  0  0  0  0
 10 32  1  0  0  0  0
 11 13  1  0  0  0  0
 11 33  1  0  0  0  0
 12 14  1  0  0  0  0
 13 15  1  0  0  0  0
 13 34  1  1  0  0  0
 14 16  1  0  0  0  0
 14 35  1  0  0  0  0
 15 17  1  0  0  0  0
 15 36  1  0  0  0  0
 15 37  1  0  0  0  0
 16 39  1  0  0  0  0
 16 40  1  0  0  0  0
 16 41  1  0  0  0  0
 17 19  2  0  0  0  0
 17 42  1  0  0  0  0
 18 19  1  0  0  0  0
 19 43  1  0  0  0  0
 20 21  1  0  0  0  0
 21 22  2  0  0  0  0
 21 44  1  0  0  0  0
 22 23  1  0  0  0  0
 22 45  1  0  0  0  0
 23 24  2  0  0  0  0
 23 25  1  0  0  0  0
 24 26  1  0  0  0  0
 24 46  1  0  0  0  0
 25 27  2  0  0  0  0
 25 47  1  0  0  0  0
 26 28  2  0  0  0  0
 26 48  1  0  0  0  0
 27 28  1  0  0  0  0
 27 49  1  0  0  0  0
M  END
> <PUBCHEM_COMPOUND_CID>
44395365

> <PUBCHEM_COMPOUND_CANONICALIZED>
1

> <PUBCHEM_CACTVS_COMPLEXITY>
660

> <PUBCHEM_CACTVS_HBOND_ACCEPTOR>
7

> <PUBCHEM_CACTVS_HBOND_DONOR>
2

> <PUBCHEM_CACTVS_ROTATABLE_BOND>
8

> <PUBCHEM_CACTVS_SUBSKEYS>
AAADceB4OAAAAAAAAAAAAAAAGAAAAAAAAAAwQAAAAAAAAAABAAAAGgAACAAADRSgmAIyDoAABgCIAqDSCAICAAAgIAAIiAFGCMgJNjKCMRaCcAAkwBELuYeK7OzOIAAAAAAAAABAAAAAAAAAAAAAAAAAAA==

> <PUBCHEM_IUPAC_OPENEYE_NAME>
[2-[(1S,2S)-2-[(S)-hydroxy-[(2R)-6-oxo-2,3-dihydropyran-2-yl]methyl]cyclopropyl]-1-methyl-2-oxo-ethyl] (E)-3-(4-hydroxyphenyl)prop-2-enoate

> <PUBCHEM_IUPAC_CAS_NAME>
(E)-3-(4-hydroxyphenyl)-2-propenoic acid [1-[(1S,2S)-2-[(S)-hydroxy-[(2R)-6-oxo-2,3-dihydropyran-2-yl]methyl]cyclopropyl]-1-oxopropan-2-yl] ester

> <PUBCHEM_IUPAC_NAME_MARKUP>
[1-[(1<I>S</I>,2<I>S</I>)-2-[(<I>S</I>)-hydroxy-[(2<I>R</I>)-6-oxo-2,3-dihydropyran-2-yl]methyl]cyclopropyl]-1-oxopropan-2-yl] (<I>E</I>)-3-(4-hydroxyphenyl)prop-2-enoate

> <PUBCHEM_IUPAC_NAME>
[1-[(1S,2S)-2-[(S)-hydroxy-[(2R)-6-oxo-2,3-dihydropyran-2-yl]methyl]cyclopropyl]-1-oxopropan-2-yl] (E)-3-(4-hydroxyphenyl)prop-2-enoate

> <PUBCHEM_IUPAC_SYSTEMATIC_NAME>
[1-oxidanylidene-1-[(1S,2S)-2-[(S)-oxidanyl-[(2R)-6-oxidanylidene-2,3-dihydropyran-2-yl]methyl]cyclopropyl]propan-2-yl] (E)-3-(4-hydroxyphenyl)prop-2-enoate

> <PUBCHEM_IUPAC_TRADITIONAL_NAME>
(E)-3-(4-hydroxyphenyl)acrylic acid [2-[(1S,2S)-2-[(S)-hydroxy-[(2R)-6-keto-2,3-dihydropyran-2-yl]methyl]cyclopropyl]-2-keto-1-methyl-ethyl] ester

> <PUBCHEM_IUPAC_INCHI>
InChI=1S/C21H22O7/c1-12(27-19(24)10-7-13-5-8-14(22)9-6-13)20(25)15-11-16(15)21(26)17-3-2-4-18(23)28-17/h2,4-10,12,15-17,21-22,26H,3,11H2,1H3/b10-7+/t12?,15-,16-,17+,21-/m0/s1

> <PUBCHEM_IUPAC_INCHIKEY>
BJDMHAYLPGRUFH-XRBUDWHNSA-N

> <PUBCHEM_XLOGP3_AA>
2.3

> <PUBCHEM_EXACT_MASS>
386.13655304

> <PUBCHEM_MOLECULAR_FORMULA>
C21H22O7

> <PUBCHEM_MOLECULAR_WEIGHT>
386.4

> <PUBCHEM_OPENEYE_CAN_SMILES>
CC(C(=O)C1CC1C(C2CC=CC(=O)O2)O)OC(=O)C=CC3=CC=C(C=C3)O

> <PUBCHEM_OPENEYE_ISO_SMILES>
CC(C(=O)[C@H]1C[C@@H]1[C@@H]([C@H]2CC=CC(=O)O2)O)OC(=O)/C=C/C3=CC=C(C=C3)O

> <PUBCHEM_CACTVS_TPSA>
110

> <PUBCHEM_MONOISOTOPIC_WEIGHT>
386.13655304

> <PUBCHEM_TOTAL_CHARGE>
0

> <PUBCHEM_HEAVY_ATOM_COUNT>
28

> <PUBCHEM_ATOM_DEF_STEREO_COUNT>
4

> <PUBCHEM_ATOM_UDEF_STEREO_COUNT>
1

> <PUBCHEM_BOND_DEF_STEREO_COUNT>
1

> <PUBCHEM_BOND_UDEF_STEREO_COUNT>
0

> <PUBCHEM_ISOTOPIC_ATOM_COUNT>
0

> <PUBCHEM_COMPONENT_COUNT>
1

> <PUBCHEM_CACTVS_TAUTO_COUNT>
-1

> <PUBCHEM_COORDINATE_TYPE>
1
5
255

> <PUBCHEM_BONDANNOTATIONS>
11  1  5
13  34  5
14  16  3
23  24  8
23  25  8
24  26  8
25  27  8
26  28  8
27  28  8
8  29  5
9  12  5

$$$$
