11575639
  -OEChem-05162310032D

 67 69  0     1  0  0  0  0  0999 V2000
    9.0627    0.7500    0.0000 O   0  0  0  0  0  0  0  0  0  0  0  0
    5.5981    1.7500    0.0000 O   0  0  0  0  0  0  0  0  0  0  0  0
    3.3660   -0.3840    0.0000 O   0  0  0  0  0  0  0  0  0  0  0  0
    6.4641   -1.7500    0.0000 O   0  0  0  0  0  0  0  0  0  0  0  0
    6.4641    3.2500    0.0000 O   0  0  0  0  0  0  0  0  0  0  0  0
    5.5981   -3.2500    0.0000 O   0  0  0  0  0  0  0  0  0  0  0  0
    8.1962    1.2500    0.0000 C   0  0  2  0  0  0  0  0  0  0  0  0
    8.1962    0.2500    0.0000 C   0  0  1  0  0  0  0  0  0  0  0  0
    7.3301    1.7500    0.0000 C   0  0  0  0  0  0  0  0  0  0  0  0
    7.3301   -0.2500    0.0000 C   0  0  0  0  0  0  0  0  0  0  0  0
    6.4641    0.2500    0.0000 C   0  0  1  0  0  0  0  0  0  0  0  0
    6.4641    1.2500    0.0000 C   0  0  2  0  0  0  0  0  0  0  0  0
    8.1962    2.2500    0.0000 C   0  0  0  0  0  0  0  0  0  0  0  0
    5.5981   -0.2500    0.0000 C   0  0  0  0  0  0  0  0  0  0  0  0
    5.5981   -1.2500    0.0000 C   0  0  3  0  0  0  0  0  0  0  0  0
    3.8660   -1.2500    0.0000 C   0  0  3  0  0  0  0  0  0  0  0  0
    2.8660   -1.2500    0.0000 C   0  0  0  0  0  0  0  0  0  0  0  0
    4.7320   -1.7500    0.0000 C   0  0  0  0  0  0  0  0  0  0  0  0
    4.7320    0.2500    0.0000 C   0  0  0  0  0  0  0  0  0  0  0  0
    2.0000   -0.7500    0.0000 C   0  0  0  0  0  0  0  0  0  0  0  0
    2.8660   -2.2500    0.0000 C   0  0  0  0  0  0  0  0  0  0  0  0
    5.5981    2.7500    0.0000 C   0  0  0  0  0  0  0  0  0  0  0  0
    6.4641   -2.7500    0.0000 C   0  0  0  0  0  0  0  0  0  0  0  0
    4.7320    3.2500    0.0000 C   0  0  0  0  0  0  0  0  0  0  0  0
    7.3301   -3.2500    0.0000 C   0  0  0  0  0  0  0  0  0  0  0  0
    3.8660    2.7500    0.0000 C   0  0  0  0  0  0  0  0  0  0  0  0
    4.7320    4.2500    0.0000 C   0  0  0  0  0  0  0  0  0  0  0  0
    8.1962   -2.7500    0.0000 C   0  0  0  0  0  0  0  0  0  0  0  0
    7.3301   -4.2500    0.0000 C   0  0  0  0  0  0  0  0  0  0  0  0
    5.5981    4.7500    0.0000 C   0  0  0  0  0  0  0  0  0  0  0  0
    6.4641   -4.7500    0.0000 C   0  0  0  0  0  0  0  0  0  0  0  0
    8.6211   -0.4862    0.0000 H   0  0  0  0  0  0  0  0  0  0  0  0
    7.7287    2.2250    0.0000 H   0  0  0  0  0  0  0  0  0  0  0  0
    6.9316    2.2250    0.0000 H   0  0  0  0  0  0  0  0  0  0  0  0
    6.9316   -0.7249    0.0000 H   0  0  0  0  0  0  0  0  0  0  0  0
    7.7287   -0.7249    0.0000 H   0  0  0  0  0  0  0  0  0  0  0  0
    6.4641   -0.3700    0.0000 H   0  0  0  0  0  0  0  0  0  0  0  0
    6.4641    1.8700    0.0000 H   0  0  0  0  0  0  0  0  0  0  0  0
    8.8162    2.2500    0.0000 H   0  0  0  0  0  0  0  0  0  0  0  0
    8.1962    2.8700    0.0000 H   0  0  0  0  0  0  0  0  0  0  0  0
    7.5762    2.2500    0.0000 H   0  0  0  0  0  0  0  0  0  0  0  0
    5.5981   -1.8700    0.0000 H   0  0  0  0  0  0  0  0  0  0  0  0
    4.3044   -0.8116    0.0000 H   0  0  0  0  0  0  0  0  0  0  0  0
    4.3335   -2.2250    0.0000 H   0  0  0  0  0  0  0  0  0  0  0  0
    5.1306   -2.2250    0.0000 H   0  0  0  0  0  0  0  0  0  0  0  0
    4.7320    0.8700    0.0000 H   0  0  0  0  0  0  0  0  0  0  0  0
    4.1951   -0.0600    0.0000 H   0  0  0  0  0  0  0  0  0  0  0  0
    2.3100   -0.2131    0.0000 H   0  0  0  0  0  0  0  0  0  0  0  0
    1.4631   -0.4400    0.0000 H   0  0  0  0  0  0  0  0  0  0  0  0
    1.6900   -1.2869    0.0000 H   0  0  0  0  0  0  0  0  0  0  0  0
    2.2460   -2.2500    0.0000 H   0  0  0  0  0  0  0  0  0  0  0  0
    2.8660   -2.8700    0.0000 H   0  0  0  0  0  0  0  0  0  0  0  0
    3.4860   -2.2500    0.0000 H   0  0  0  0  0  0  0  0  0  0  0  0
    3.5560    3.2869    0.0000 H   0  0  0  0  0  0  0  0  0  0  0  0
    3.3291    2.4400    0.0000 H   0  0  0  0  0  0  0  0  0  0  0  0
    4.1760    2.2131    0.0000 H   0  0  0  0  0  0  0  0  0  0  0  0
    4.1951    4.5600    0.0000 H   0  0  0  0  0  0  0  0  0  0  0  0
    8.5062   -3.2869    0.0000 H   0  0  0  0  0  0  0  0  0  0  0  0
    8.7331   -2.4400    0.0000 H   0  0  0  0  0  0  0  0  0  0  0  0
    7.8862   -2.2131    0.0000 H   0  0  0  0  0  0  0  0  0  0  0  0
    7.8671   -4.5600    0.0000 H   0  0  0  0  0  0  0  0  0  0  0  0
    5.9081    4.2131    0.0000 H   0  0  0  0  0  0  0  0  0  0  0  0
    6.1350    5.0600    0.0000 H   0  0  0  0  0  0  0  0  0  0  0  0
    5.2881    5.2869    0.0000 H   0  0  0  0  0  0  0  0  0  0  0  0
    6.1541   -4.2131    0.0000 H   0  0  0  0  0  0  0  0  0  0  0  0
    5.9272   -5.0600    0.0000 H   0  0  0  0  0  0  0  0  0  0  0  0
    6.7741   -5.2869    0.0000 H   0  0  0  0  0  0  0  0  0  0  0  0
  1  7  1  0  0  0  0
  1  8  1  0  0  0  0
 12  2  1  6  0  0  0
  2 22  1  0  0  0  0
  3 16  1  0  0  0  0
  3 17  1  0  0  0  0
  4 15  1  0  0  0  0
  4 23  1  0  0  0  0
  5 22  2  0  0  0  0
  6 23  2  0  0  0  0
  7  8  1  0  0  0  0
  7  9  1  0  0  0  0
  7 13  1  1  0  0  0
  8 10  1  0  0  0  0
  8 32  1  1  0  0  0
  9 12  1  0  0  0  0
  9 33  1  0  0  0  0
  9 34  1  0  0  0  0
 10 11  1  0  0  0  0
 10 35  1  0  0  0  0
 10 36  1  0  0  0  0
 11 12  1  0  0  0  0
 11 14  1  6  0  0  0
 11 37  1  0  0  0  0
 12 38  1  0  0  0  0
 13 39  1  0  0  0  0
 13 40  1  0  0  0  0
 13 41  1  0  0  0  0
 14 15  1  0  0  0  0
 14 19  2  0  0  0  0
 15 18  1  0  0  0  0
 15 42  1  0  0  0  0
 16 17  1  0  0  0  0
 16 18  1  0  0  0  0
 16 43  1  0  0  0  0
 17 20  1  0  0  0  0
 17 21  1  0  0  0  0
 18 44  1  0  0  0  0
 18 45  1  0  0  0  0
 19 46  1  0  0  0  0
 19 47  1  0  0  0  0
 20 48  1  0  0  0  0
 20 49  1  0  0  0  0
 20 50  1  0  0  0  0
 21 51  1  0  0  0  0
 21 52  1  0  0  0  0
 21 53  1  0  0  0  0
 22 24  1  0  0  0  0
 23 25  1  0  0  0  0
 24 26  1  0  0  0  0
 24 27  2  0  0  0  0
 25 28  1  0  0  0  0
 25 29  2  0  0  0  0
 26 54  1  0  0  0  0
 26 55  1  0  0  0  0
 26 56  1  0  0  0  0
 27 30  1  0  0  0  0
 27 57  1  0  0  0  0
 28 58  1  0  0  0  0
 28 59  1  0  0  0  0
 28 60  1  0  0  0  0
 29 31  1  0  0  0  0
 29 61  1  0  0  0  0
 30 62  1  0  0  0  0
 30 63  1  0  0  0  0
 30 64  1  0  0  0  0
 31 65  1  0  0  0  0
 31 66  1  0  0  0  0
 31 67  1  0  0  0  0
M  END
> <PUBCHEM_COMPOUND_CID>
11575639

> <PUBCHEM_COMPOUND_CANONICALIZED>
1

> <PUBCHEM_CACTVS_COMPLEXITY>
822

> <PUBCHEM_CACTVS_HBOND_ACCEPTOR>
6

> <PUBCHEM_CACTVS_HBOND_DONOR>
0

> <PUBCHEM_CACTVS_ROTATABLE_BOND>
10

> <PUBCHEM_CACTVS_SUBSKEYS>
AAADcfB4OAAAAAAAAAAAAAAAEiQAAAAAAAAwAAAABIAAAAAAAAAAGgAAAAAADVSggAICCAAABACIAiDSCAAAAAAgAAAACAEAAEgABAIAIQACEAAFwAAAIYHA4PwOAAAAAAAAAADCAAIQABAAAAAAAAAAAA==

> <PUBCHEM_IUPAC_OPENEYE_NAME>
[(1S,3R,4R,6R)-4-[3-(3,3-dimethyloxiran-2-yl)-2-[(Z)-2-methylbut-2-enoyl]oxy-1-methylene-propyl]-1-methyl-7-oxabicyclo[4.1.0]heptan-3-yl] (Z)-2-methylbut-2-enoate

> <PUBCHEM_IUPAC_CAS_NAME>
(Z)-2-methyl-2-butenoic acid [(1S,3R,4R,6R)-4-[4-(3,3-dimethyl-2-oxiranyl)-3-[(Z)-2-methyl-1-oxobut-2-enoxy]but-1-en-2-yl]-1-methyl-7-oxabicyclo[4.1.0]heptan-3-yl] ester

> <PUBCHEM_IUPAC_NAME_MARKUP>
[(1<I>S</I>,3<I>R</I>,4<I>R</I>,6<I>R</I>)-4-[4-(3,3-dimethyloxiran-2-yl)-3-[(<I>Z</I>)-2-methylbut-2-enoyl]oxybut-1-en-2-yl]-1-methyl-7-oxabicyclo[4.1.0]heptan-3-yl] (<I>Z</I>)-2-methylbut-2-enoate

> <PUBCHEM_IUPAC_NAME>
[(1S,3R,4R,6R)-4-[4-(3,3-dimethyloxiran-2-yl)-3-[(Z)-2-methylbut-2-enoyl]oxybut-1-en-2-yl]-1-methyl-7-oxabicyclo[4.1.0]heptan-3-yl] (Z)-2-methylbut-2-enoate

> <PUBCHEM_IUPAC_SYSTEMATIC_NAME>
[(1S,3R,4R,6R)-4-[4-(3,3-dimethyloxiran-2-yl)-3-[(Z)-2-methylbut-2-enoyl]oxy-but-1-en-2-yl]-1-methyl-7-oxabicyclo[4.1.0]heptan-3-yl] (Z)-2-methylbut-2-enoate

> <PUBCHEM_IUPAC_TRADITIONAL_NAME>
(Z)-2-methylbut-2-enoic acid [(1S,3R,4R,6R)-4-[1-[2-(3,3-dimethyloxiran-2-yl)-1-[(Z)-2-methylbut-2-enoyl]oxy-ethyl]vinyl]-1-methyl-7-oxabicyclo[4.1.0]heptan-3-yl] ester

> <PUBCHEM_IUPAC_INCHI>
InChI=1S/C25H36O6/c1-9-14(3)22(26)28-18(12-20-24(6,7)30-20)16(5)17-11-21-25(8,31-21)13-19(17)29-23(27)15(4)10-2/h9-10,17-21H,5,11-13H2,1-4,6-8H3/b14-9-,15-10-/t17-,18?,19-,20?,21-,25+/m1/s1

> <PUBCHEM_IUPAC_INCHIKEY>
RYCPLJPOJZTHII-IOINDQDPSA-N

> <PUBCHEM_XLOGP3_AA>
4.6

> <PUBCHEM_EXACT_MASS>
432.25118886

> <PUBCHEM_MOLECULAR_FORMULA>
C25H36O6

> <PUBCHEM_MOLECULAR_WEIGHT>
432.5

> <PUBCHEM_OPENEYE_CAN_SMILES>
CC=C(C)C(=O)OC1CC2(C(O2)CC1C(=C)C(CC3C(O3)(C)C)OC(=O)C(=CC)C)C

> <PUBCHEM_OPENEYE_ISO_SMILES>
C/C=C(/C)\C(=O)O[C@@H]1C[C@]2([C@H](O2)C[C@@H]1C(=C)C(CC3C(O3)(C)C)OC(=O)/C(=C\C)/C)C

> <PUBCHEM_CACTVS_TPSA>
77.7

> <PUBCHEM_MONOISOTOPIC_WEIGHT>
432.25118886

> <PUBCHEM_TOTAL_CHARGE>
0

> <PUBCHEM_HEAVY_ATOM_COUNT>
31

> <PUBCHEM_ATOM_DEF_STEREO_COUNT>
4

> <PUBCHEM_ATOM_UDEF_STEREO_COUNT>
2

> <PUBCHEM_BOND_DEF_STEREO_COUNT>
2

> <PUBCHEM_BOND_UDEF_STEREO_COUNT>
0

> <PUBCHEM_ISOTOPIC_ATOM_COUNT>
0

> <PUBCHEM_COMPONENT_COUNT>
1

> <PUBCHEM_CACTVS_TAUTO_COUNT>
-1

> <PUBCHEM_COORDINATE_TYPE>
1
5
255

> <PUBCHEM_BONDANNOTATIONS>
11  14  6
15  18  3
16  18  3
12  2  6
7  13  5
8  32  5

$$$$
