11577879
  -OEChem-05162310112D

 64 68  0     1  0  0  0  0  0999 V2000
    7.3054   -1.4269    0.0000 O   0  0  0  0  0  0  0  0  0  0  0  0
    9.0655   -1.7056    0.0000 O   0  0  0  0  0  0  0  0  0  0  0  0
    6.2176   -3.7747    0.0000 O   0  0  0  0  0  0  0  0  0  0  0  0
    8.3932   -3.7747    0.0000 O   0  0  0  0  0  0  0  0  0  0  0  0
    4.8022   -2.3748    0.0000 O   0  0  0  0  0  0  0  0  0  0  0  0
   10.4324    0.5597    0.0000 O   0  0  0  0  0  0  0  0  0  0  0  0
    7.5792   -0.3674    0.0000 O   0  0  0  0  0  0  0  0  0  0  0  0
    7.0060    1.2848    0.0000 O   0  0  0  0  0  0  0  0  0  0  0  0
    9.3645    3.9245    0.0000 O   0  0  0  0  0  0  0  0  0  0  0  0
   13.6129   -1.1387    0.0000 O   0  0  0  0  0  0  0  0  0  0  0  0
   13.1971   -3.0950    0.0000 O   0  0  0  0  0  0  0  0  0  0  0  0
    6.4518    2.9258    0.0000 O   0  0  0  0  0  0  0  0  0  0  0  0
    2.8587    2.6263    0.0000 O   0  0  0  0  0  0  0  0  0  0  0  0
    3.9672   -0.6557    0.0000 O   0  0  0  0  0  0  0  0  0  0  0  0
    2.4655    0.6653    0.0000 O   0  0  0  0  0  0  0  0  0  0  0  0
    6.8054   -2.9657    0.0000 C   0  0  2  0  0  0  0  0  0  0  0  0
    7.8054   -2.9657    0.0000 C   0  0  2  0  0  0  0  0  0  0  0  0
    6.4964   -2.0146    0.0000 C   0  0  2  0  0  0  0  0  0  0  0  0
    8.1144   -2.0146    0.0000 C   0  0  1  0  0  0  0  0  0  0  0  0
    5.5454   -1.7056    0.0000 C   0  0  0  0  0  0  0  0  0  0  0  0
    9.2734   -0.7275    0.0000 C   0  0  0  0  0  0  0  0  0  0  0  0
   10.2245   -0.4185    0.0000 C   0  0  0  0  0  0  0  0  0  0  0  0
    8.5303   -0.0584    0.0000 C   0  0  0  0  0  0  0  0  0  0  0  0
    8.7382    0.9198    0.0000 C   0  0  0  0  0  0  0  0  0  0  0  0
    9.6892    1.2288    0.0000 C   0  0  0  0  0  0  0  0  0  0  0  0
   10.9676   -1.0876    0.0000 C   0  0  0  0  0  0  0  0  0  0  0  0
    7.9534    1.6048    0.0000 C   0  0  0  0  0  0  0  0  0  0  0  0
    9.9215    2.2442    0.0000 C   0  0  0  0  0  0  0  0  0  0  0  0
   11.9187   -0.7786    0.0000 C   0  0  0  0  0  0  0  0  0  0  0  0
    8.1622    2.6253    0.0000 C   0  0  0  0  0  0  0  0  0  0  0  0
   10.7597   -2.0658    0.0000 C   0  0  0  0  0  0  0  0  0  0  0  0
    9.1528    2.9472    0.0000 C   0  0  0  0  0  0  0  0  0  0  0  0
   12.6618   -1.4477    0.0000 C   0  0  0  0  0  0  0  0  0  0  0  0
   11.5029   -2.7349    0.0000 C   0  0  0  0  0  0  0  0  0  0  0  0
   12.4539   -2.4259    0.0000 C   0  0  0  0  0  0  0  0  0  0  0  0
    6.2552    1.9453    0.0000 C   0  0  0  0  0  0  0  0  0  0  0  0
    5.3078    1.6253    0.0000 C   0  0  0  0  0  0  0  0  0  0  0  0
    5.1112    0.6448    0.0000 C   0  0  0  0  0  0  0  0  0  0  0  0
    4.5569    2.2858    0.0000 C   0  0  0  0  0  0  0  0  0  0  0  0
    3.6095    1.9658    0.0000 C   0  0  0  0  0  0  0  0  0  0  0  0
    4.1638    0.3248    0.0000 C   0  0  0  0  0  0  0  0  0  0  0  0
    3.4129    0.9853    0.0000 C   0  0  0  0  0  0  0  0  0  0  0  0
    6.1931   -2.8687    0.0000 H   0  0  0  0  0  0  0  0  0  0  0  0
    7.5240   -3.5181    0.0000 H   0  0  0  0  0  0  0  0  0  0  0  0
    6.3994   -1.4023    0.0000 H   0  0  0  0  0  0  0  0  0  0  0  0
    8.5528   -2.4531    0.0000 H   0  0  0  0  0  0  0  0  0  0  0  0
    5.8364   -1.1582    0.0000 H   0  0  0  0  0  0  0  0  0  0  0  0
    5.0568   -1.3239    0.0000 H   0  0  0  0  0  0  0  0  0  0  0  0
    6.4698   -4.3411    0.0000 H   0  0  0  0  0  0  0  0  0  0  0  0
    8.1410   -4.3411    0.0000 H   0  0  0  0  0  0  0  0  0  0  0  0
    4.2126   -2.1832    0.0000 H   0  0  0  0  0  0  0  0  0  0  0  0
   10.5133    2.4290    0.0000 H   0  0  0  0  0  0  0  0  0  0  0  0
   12.0476   -0.1721    0.0000 H   0  0  0  0  0  0  0  0  0  0  0  0
    7.6998    3.0384    0.0000 H   0  0  0  0  0  0  0  0  0  0  0  0
   10.1701   -2.2573    0.0000 H   0  0  0  0  0  0  0  0  0  0  0  0
   11.3739   -3.3413    0.0000 H   0  0  0  0  0  0  0  0  0  0  0  0
    8.9053    4.3411    0.0000 H   0  0  0  0  0  0  0  0  0  0  0  0
   13.7418   -0.5322    0.0000 H   0  0  0  0  0  0  0  0  0  0  0  0
   13.7867   -2.9034    0.0000 H   0  0  0  0  0  0  0  0  0  0  0  0
    5.5767    0.2353    0.0000 H   0  0  0  0  0  0  0  0  0  0  0  0
    4.6788    2.8937    0.0000 H   0  0  0  0  0  0  0  0  0  0  0  0
    2.9806    3.2342    0.0000 H   0  0  0  0  0  0  0  0  0  0  0  0
    3.3798   -0.8541    0.0000 H   0  0  0  0  0  0  0  0  0  0  0  0
    2.0000    1.0748    0.0000 H   0  0  0  0  0  0  0  0  0  0  0  0
  1 18  1  0  0  0  0
  1 19  1  0  0  0  0
 19  2  1  1  0  0  0
  2 21  1  0  0  0  0
 16  3  1  1  0  0  0
  3 49  1  0  0  0  0
 17  4  1  6  0  0  0
  4 50  1  0  0  0  0
  5 20  1  0  0  0  0
  5 51  1  0  0  0  0
  6 22  1  0  0  0  0
  6 25  1  0  0  0  0
  7 23  2  0  0  0  0
  8 27  1  0  0  0  0
  8 36  1  0  0  0  0
  9 32  1  0  0  0  0
  9 57  1  0  0  0  0
 10 33  1  0  0  0  0
 10 58  1  0  0  0  0
 11 35  1  0  0  0  0
 11 59  1  0  0  0  0
 12 36  2  0  0  0  0
 13 40  1  0  0  0  0
 13 62  1  0  0  0  0
 14 41  1  0  0  0  0
 14 63  1  0  0  0  0
 15 42  1  0  0  0  0
 15 64  1  0  0  0  0
 16 17  1  0  0  0  0
 16 18  1  0  0  0  0
 16 43  1  0  0  0  0
 17 19  1  0  0  0  0
 17 44  1  0  0  0  0
 18 20  1  6  0  0  0
 18 45  1  0  0  0  0
 19 46  1  0  0  0  0
 20 47  1  0  0  0  0
 20 48  1  0  0  0  0
 21 22  2  0  0  0  0
 21 23  1  0  0  0  0
 22 26  1  0  0  0  0
 23 24  1  0  0  0  0
 24 25  2  0  0  0  0
 24 27  1  0  0  0  0
 25 28  1  0  0  0  0
 26 29  2  0  0  0  0
 26 31  1  0  0  0  0
 27 30  2  0  0  0  0
 28 32  2  0  0  0  0
 28 52  1  0  0  0  0
 29 33  1  0  0  0  0
 29 53  1  0  0  0  0
 30 32  1  0  0  0  0
 30 54  1  0  0  0  0
 31 34  2  0  0  0  0
 31 55  1  0  0  0  0
 33 35  2  0  0  0  0
 34 35  1  0  0  0  0
 34 56  1  0  0  0  0
 36 37  1  0  0  0  0
 37 38  2  0  0  0  0
 37 39  1  0  0  0  0
 38 41  1  0  0  0  0
 38 60  1  0  0  0  0
 39 40  2  0  0  0  0
 39 61  1  0  0  0  0
 40 42  1  0  0  0  0
 41 42  2  0  0  0  0
M  END
> <PUBCHEM_COMPOUND_CID>
11577879

> <PUBCHEM_COMPOUND_CANONICALIZED>
1

> <PUBCHEM_CACTVS_COMPLEXITY>
1020

> <PUBCHEM_CACTVS_HBOND_ACCEPTOR>
15

> <PUBCHEM_CACTVS_HBOND_DONOR>
9

> <PUBCHEM_CACTVS_ROTATABLE_BOND>
7

> <PUBCHEM_CACTVS_SUBSKEYS>
AAADceB4PAAAAAAAAAAAAAAAAAAAASAAAAAwYMEAAAAAAACBUAAAGgAACAAADBSwmAMwDoAABgCIAqDSCAICCAAkIAAIiAFGiMgdNzaGNR6ie2Gl4BUPuYfK7LzOIAABCAAIQABAAAIQABCAAAAAAAAAAA==

> <PUBCHEM_IUPAC_OPENEYE_NAME>
[3-[(2S,3R,4R,5S)-3,4-dihydroxy-5-(hydroxymethyl)tetrahydrofuran-2-yl]oxy-2-(3,4-dihydroxyphenyl)-7-hydroxy-4-oxo-chromen-5-yl] 3,4,5-trihydroxybenzoate

> <PUBCHEM_IUPAC_CAS_NAME>
3,4,5-trihydroxybenzoic acid [3-[[(2S,3R,4R,5S)-3,4-dihydroxy-5-(hydroxymethyl)-2-oxolanyl]oxy]-2-(3,4-dihydroxyphenyl)-7-hydroxy-4-oxo-1-benzopyran-5-yl] ester

> <PUBCHEM_IUPAC_NAME_MARKUP>
[3-[(2<I>S</I>,3<I>R</I>,4<I>R</I>,5<I>S</I>)-3,4-dihydroxy-5-(hydroxymethyl)oxolan-2-yl]oxy-2-(3,4-dihydroxyphenyl)-7-hydroxy-4-oxochromen-5-yl] 3,4,5-trihydroxybenzoate

> <PUBCHEM_IUPAC_NAME>
[3-[(2S,3R,4R,5S)-3,4-dihydroxy-5-(hydroxymethyl)oxolan-2-yl]oxy-2-(3,4-dihydroxyphenyl)-7-hydroxy-4-oxochromen-5-yl] 3,4,5-trihydroxybenzoate

> <PUBCHEM_IUPAC_SYSTEMATIC_NAME>
[2-[3,4-bis(oxidanyl)phenyl]-3-[(2S,3R,4R,5S)-5-(hydroxymethyl)-3,4-bis(oxidanyl)oxolan-2-yl]oxy-7-oxidanyl-4-oxidanylidene-chromen-5-yl] 3,4,5-tris(oxidanyl)benzoate

> <PUBCHEM_IUPAC_TRADITIONAL_NAME>
3,4,5-trihydroxybenzoic acid [3-[(2S,3R,4R,5S)-3,4-dihydroxy-5-methylol-tetrahydrofuran-2-yl]oxy-2-(3,4-dihydroxyphenyl)-7-hydroxy-4-keto-chromen-5-yl] ester

> <PUBCHEM_IUPAC_INCHI>
InChI=1S/C27H22O15/c28-8-18-21(35)23(37)27(41-18)42-25-22(36)19-16(39-24(25)9-1-2-12(30)13(31)3-9)6-11(29)7-17(19)40-26(38)10-4-14(32)20(34)15(33)5-10/h1-7,18,21,23,27-35,37H,8H2/t18-,21-,23+,27-/m0/s1

> <PUBCHEM_IUPAC_INCHIKEY>
LFQZCBSAAFCIGV-GABSKDJNSA-N

> <PUBCHEM_XLOGP3_AA>
1.1

> <PUBCHEM_EXACT_MASS>
586.09586999

> <PUBCHEM_MOLECULAR_FORMULA>
C27H22O15

> <PUBCHEM_MOLECULAR_WEIGHT>
586.5

> <PUBCHEM_OPENEYE_CAN_SMILES>
C1=CC(=C(C=C1C2=C(C(=O)C3=C(O2)C=C(C=C3OC(=O)C4=CC(=C(C(=C4)O)O)O)O)OC5C(C(C(O5)CO)O)O)O)O

> <PUBCHEM_OPENEYE_ISO_SMILES>
C1=CC(=C(C=C1C2=C(C(=O)C3=C(O2)C=C(C=C3OC(=O)C4=CC(=C(C(=C4)O)O)O)O)O[C@H]5[C@@H]([C@H]([C@@H](O5)CO)O)O)O)O

> <PUBCHEM_CACTVS_TPSA>
253

> <PUBCHEM_MONOISOTOPIC_WEIGHT>
586.09586999

> <PUBCHEM_TOTAL_CHARGE>
0

> <PUBCHEM_HEAVY_ATOM_COUNT>
42

> <PUBCHEM_ATOM_DEF_STEREO_COUNT>
4

> <PUBCHEM_ATOM_UDEF_STEREO_COUNT>
0

> <PUBCHEM_BOND_DEF_STEREO_COUNT>
0

> <PUBCHEM_BOND_UDEF_STEREO_COUNT>
0

> <PUBCHEM_ISOTOPIC_ATOM_COUNT>
0

> <PUBCHEM_COMPONENT_COUNT>
1

> <PUBCHEM_CACTVS_TAUTO_COUNT>
-1

> <PUBCHEM_COORDINATE_TYPE>
1
5
255

> <PUBCHEM_BONDANNOTATIONS>
18  20  6
19  2  5
21  22  8
21  23  8
23  24  8
24  25  8
24  27  8
25  28  8
26  29  8
26  31  8
27  30  8
28  32  8
29  33  8
16  3  5
30  32  8
31  34  8
33  35  8
34  35  8
37  38  8
37  39  8
38  41  8
39  40  8
17  4  6
40  42  8
41  42  8
6  22  8
6  25  8

$$$$
