23626634
  -OEChem-05162309522D

 79 79  0     1  0  0  0  0  0999 V2000
   12.3923   -2.5000    0.0000 O   0  0  0  0  0  0  0  0  0  0  0  0
   13.2583   -4.0000    0.0000 O   0  0  0  0  0  0  0  0  0  0  0  0
    2.8660    3.0000    0.0000 O   0  0  0  0  0  0  0  0  0  0  0  0
    4.5981    6.0000    0.0000 O   0  0  0  0  0  0  0  0  0  0  0  0
    3.7320    1.5000    0.0000 O   0  0  0  0  0  0  0  0  0  0  0  0
    6.3301    6.0000    0.0000 O   0  0  0  0  0  0  0  0  0  0  0  0
   11.5263   -4.0000    0.0000 C   0  0  0  0  0  0  0  0  0  0  0  0
   11.5263   -3.0000    0.0000 C   0  0  1  0  0  0  0  0  0  0  0  0
   12.3923   -4.5000    0.0000 C   0  0  0  0  0  0  0  0  0  0  0  0
   12.3923   -5.5000    0.0000 C   0  0  0  0  0  0  0  0  0  0  0  0
    7.1962    0.5000    0.0000 C   0  0  0  0  0  0  0  0  0  0  0  0
    8.0622    0.0000    0.0000 C   0  0  0  0  0  0  0  0  0  0  0  0
    7.1962    1.5000    0.0000 C   0  0  0  0  0  0  0  0  0  0  0  0
   10.6603   -2.5000    0.0000 C   0  0  0  0  0  0  0  0  0  0  0  0
    8.0622   -1.0000    0.0000 C   0  0  0  0  0  0  0  0  0  0  0  0
   13.2583   -6.0000    0.0000 C   0  0  0  0  0  0  0  0  0  0  0  0
    6.3301    2.0000    0.0000 C   0  0  0  0  0  0  0  0  0  0  0  0
    8.9282   -1.5000    0.0000 C   0  0  0  0  0  0  0  0  0  0  0  0
    6.3301    3.0000    0.0000 C   0  0  0  0  0  0  0  0  0  0  0  0
    9.7942   -3.0000    0.0000 C   0  0  0  0  0  0  0  0  0  0  0  0
   13.2583   -7.0000    0.0000 C   0  0  0  0  0  0  0  0  0  0  0  0
    8.9282   -2.5000    0.0000 C   0  0  0  0  0  0  0  0  0  0  0  0
    5.4641    3.5000    0.0000 C   0  0  0  0  0  0  0  0  0  0  0  0
   14.1244   -7.5000    0.0000 C   0  0  0  0  0  0  0  0  0  0  0  0
    5.4641    4.5000    0.0000 C   0  0  0  0  0  0  0  0  0  0  0  0
    4.5981    3.0000    0.0000 C   0  0  0  0  0  0  0  0  0  0  0  0
   13.2583   -3.0000    0.0000 C   0  0  0  0  0  0  0  0  0  0  0  0
    3.7320    3.5000    0.0000 C   0  0  0  0  0  0  0  0  0  0  0  0
    4.5981    5.0000    0.0000 C   0  0  0  0  0  0  0  0  0  0  0  0
    3.7320    4.5000    0.0000 C   0  0  0  0  0  0  0  0  0  0  0  0
   14.1244   -2.5000    0.0000 C   0  0  0  0  0  0  0  0  0  0  0  0
    2.8660    2.0000    0.0000 C   0  0  0  0  0  0  0  0  0  0  0  0
    5.4641    6.5000    0.0000 C   0  0  0  0  0  0  0  0  0  0  0  0
    2.0000    1.5000    0.0000 C   0  0  0  0  0  0  0  0  0  0  0  0
    5.4641    7.5000    0.0000 C   0  0  0  0  0  0  0  0  0  0  0  0
   10.9157   -3.8923    0.0000 H   0  0  0  0  0  0  0  0  0  0  0  0
   11.3142   -4.5826    0.0000 H   0  0  0  0  0  0  0  0  0  0  0  0
   12.0632   -3.3100    0.0000 H   0  0  0  0  0  0  0  0  0  0  0  0
   13.0029   -4.6077    0.0000 H   0  0  0  0  0  0  0  0  0  0  0  0
   12.6044   -3.9174    0.0000 H   0  0  0  0  0  0  0  0  0  0  0  0
   11.7817   -5.3923    0.0000 H   0  0  0  0  0  0  0  0  0  0  0  0
   12.1803   -6.0826    0.0000 H   0  0  0  0  0  0  0  0  0  0  0  0
    6.5856    0.6077    0.0000 H   0  0  0  0  0  0  0  0  0  0  0  0
    6.9841   -0.0826    0.0000 H   0  0  0  0  0  0  0  0  0  0  0  0
    8.6728   -0.1077    0.0000 H   0  0  0  0  0  0  0  0  0  0  0  0
    8.2742    0.5826    0.0000 H   0  0  0  0  0  0  0  0  0  0  0  0
    7.8067    1.3923    0.0000 H   0  0  0  0  0  0  0  0  0  0  0  0
    7.4082    2.0826    0.0000 H   0  0  0  0  0  0  0  0  0  0  0  0
   11.0588   -2.0250    0.0000 H   0  0  0  0  0  0  0  0  0  0  0  0
   10.2617   -2.0250    0.0000 H   0  0  0  0  0  0  0  0  0  0  0  0
    7.4516   -0.8923    0.0000 H   0  0  0  0  0  0  0  0  0  0  0  0
    7.8501   -1.5826    0.0000 H   0  0  0  0  0  0  0  0  0  0  0  0
    5.7196    2.1077    0.0000 H   0  0  0  0  0  0  0  0  0  0  0  0
    6.1181    1.4174    0.0000 H   0  0  0  0  0  0  0  0  0  0  0  0
   13.8689   -6.1077    0.0000 H   0  0  0  0  0  0  0  0  0  0  0  0
   13.4704   -5.4174    0.0000 H   0  0  0  0  0  0  0  0  0  0  0  0
    9.5388   -1.6077    0.0000 H   0  0  0  0  0  0  0  0  0  0  0  0
    9.1403   -0.9174    0.0000 H   0  0  0  0  0  0  0  0  0  0  0  0
    6.9407    2.8923    0.0000 H   0  0  0  0  0  0  0  0  0  0  0  0
    6.5422    3.5826    0.0000 H   0  0  0  0  0  0  0  0  0  0  0  0
    9.7942   -3.6200    0.0000 H   0  0  0  0  0  0  0  0  0  0  0  0
   12.6477   -6.8923    0.0000 H   0  0  0  0  0  0  0  0  0  0  0  0
   13.0463   -7.5826    0.0000 H   0  0  0  0  0  0  0  0  0  0  0  0
    8.3913   -2.8100    0.0000 H   0  0  0  0  0  0  0  0  0  0  0  0
   13.8144   -8.0369    0.0000 H   0  0  0  0  0  0  0  0  0  0  0  0
   14.6613   -7.8100    0.0000 H   0  0  0  0  0  0  0  0  0  0  0  0
   14.4344   -6.9631    0.0000 H   0  0  0  0  0  0  0  0  0  0  0  0
    6.0010    4.8100    0.0000 H   0  0  0  0  0  0  0  0  0  0  0  0
    4.5981    2.3800    0.0000 H   0  0  0  0  0  0  0  0  0  0  0  0
    3.1951    4.8100    0.0000 H   0  0  0  0  0  0  0  0  0  0  0  0
   14.4344   -3.0369    0.0000 H   0  0  0  0  0  0  0  0  0  0  0  0
   14.6613   -2.1900    0.0000 H   0  0  0  0  0  0  0  0  0  0  0  0
   13.8144   -1.9631    0.0000 H   0  0  0  0  0  0  0  0  0  0  0  0
    1.6900    2.0369    0.0000 H   0  0  0  0  0  0  0  0  0  0  0  0
    1.4631    1.1900    0.0000 H   0  0  0  0  0  0  0  0  0  0  0  0
    2.3100    0.9631    0.0000 H   0  0  0  0  0  0  0  0  0  0  0  0
    6.0841    7.5000    0.0000 H   0  0  0  0  0  0  0  0  0  0  0  0
    5.4641    8.1200    0.0000 H   0  0  0  0  0  0  0  0  0  0  0  0
    4.8441    7.5000    0.0000 H   0  0  0  0  0  0  0  0  0  0  0  0
  8  1  1  1  0  0  0
  1 27  1  0  0  0  0
  2 27  2  0  0  0  0
  3 28  1  0  0  0  0
  3 32  1  0  0  0  0
  4 29  1  0  0  0  0
  4 33  1  0  0  0  0
  5 32  2  0  0  0  0
  6 33  2  0  0  0  0
  7  8  1  0  0  0  0
  7  9  1  0  0  0  0
  7 36  1  0  0  0  0
  7 37  1  0  0  0  0
  8 14  1  0  0  0  0
  8 38  1  0  0  0  0
  9 10  1  0  0  0  0
  9 39  1  0  0  0  0
  9 40  1  0  0  0  0
 10 16  1  0  0  0  0
 10 41  1  0  0  0  0
 10 42  1  0  0  0  0
 11 12  1  0  0  0  0
 11 13  1  0  0  0  0
 11 43  1  0  0  0  0
 11 44  1  0  0  0  0
 12 15  1  0  0  0  0
 12 45  1  0  0  0  0
 12 46  1  0  0  0  0
 13 17  1  0  0  0  0
 13 47  1  0  0  0  0
 13 48  1  0  0  0  0
 14 20  1  0  0  0  0
 14 49  1  0  0  0  0
 14 50  1  0  0  0  0
 15 18  1  0  0  0  0
 15 51  1  0  0  0  0
 15 52  1  0  0  0  0
 16 21  1  0  0  0  0
 16 55  1  0  0  0  0
 16 56  1  0  0  0  0
 17 19  1  0  0  0  0
 17 53  1  0  0  0  0
 17 54  1  0  0  0  0
 18 22  1  0  0  0  0
 18 57  1  0  0  0  0
 18 58  1  0  0  0  0
 19 23  1  0  0  0  0
 19 59  1  0  0  0  0
 19 60  1  0  0  0  0
 20 22  2  0  0  0  0
 20 61  1  0  0  0  0
 21 24  1  0  0  0  0
 21 62  1  0  0  0  0
 21 63  1  0  0  0  0
 22 64  1  0  0  0  0
 23 25  2  0  0  0  0
 23 26  1  0  0  0  0
 24 65  1  0  0  0  0
 24 66  1  0  0  0  0
 24 67  1  0  0  0  0
 25 29  1  0  0  0  0
 25 68  1  0  0  0  0
 26 28  2  0  0  0  0
 26 69  1  0  0  0  0
 27 31  1  0  0  0  0
 28 30  1  0  0  0  0
 29 30  2  0  0  0  0
 30 70  1  0  0  0  0
 31 71  1  0  0  0  0
 31 72  1  0  0  0  0
 31 73  1  0  0  0  0
 32 34  1  0  0  0  0
 33 35  1  0  0  0  0
 34 74  1  0  0  0  0
 34 75  1  0  0  0  0
 34 76  1  0  0  0  0
 35 77  1  0  0  0  0
 35 78  1  0  0  0  0
 35 79  1  0  0  0  0
M  END
> <PUBCHEM_COMPOUND_CID>
23626634

> <PUBCHEM_COMPOUND_CANONICALIZED>
1

> <PUBCHEM_CACTVS_COMPLEXITY>
605

> <PUBCHEM_CACTVS_HBOND_ACCEPTOR>
6

> <PUBCHEM_CACTVS_HBOND_DONOR>
0

> <PUBCHEM_CACTVS_ROTATABLE_BOND>
21

> <PUBCHEM_CACTVS_SUBSKEYS>
AAADcfB4OAAAAAAAAAAAAAAAAAAAAAAAAAAwAAAAAAAAAAABAAAAGgAAAAAADBSgmAIyDoAABACIAiDSCAACCAAgIAAIiAAGCIgMJyKEMRqCOiClwBUIqAeA4PwOAAABCAAAAAAAAAIQAAAAAAAAAAAAAA==

> <PUBCHEM_IUPAC_OPENEYE_NAME>
[3-acetoxy-5-[(Z,11S)-11-acetoxyheptadec-8-enyl]phenyl] acetate

> <PUBCHEM_IUPAC_CAS_NAME>
acetic acid [3-acetyloxy-5-[(Z,11S)-11-acetyloxyheptadec-8-enyl]phenyl] ester

> <PUBCHEM_IUPAC_NAME_MARKUP>
[3-acetyloxy-5-[(<I>Z</I>,11<I>S</I>)-11-acetyloxyheptadec-8-enyl]phenyl] acetate

> <PUBCHEM_IUPAC_NAME>
[3-acetyloxy-5-[(Z,11S)-11-acetyloxyheptadec-8-enyl]phenyl] acetate

> <PUBCHEM_IUPAC_SYSTEMATIC_NAME>
[3-acetyloxy-5-[(Z,11S)-11-acetyloxyheptadec-8-enyl]phenyl] ethanoate

> <PUBCHEM_IUPAC_TRADITIONAL_NAME>
acetic acid [3-acetoxy-5-[(Z,11S)-11-acetoxyheptadec-8-enyl]phenyl] ester

> <PUBCHEM_IUPAC_INCHI>
InChI=1S/C29H44O6/c1-5-6-7-15-18-27(33-23(2)30)19-16-13-11-9-8-10-12-14-17-26-20-28(34-24(3)31)22-29(21-26)35-25(4)32/h13,16,20-22,27H,5-12,14-15,17-19H2,1-4H3/b16-13-/t27-/m0/s1

> <PUBCHEM_IUPAC_INCHIKEY>
BIKCBGYUTXAFGE-LAGAIYJSSA-N

> <PUBCHEM_XLOGP3_AA>
8.5

> <PUBCHEM_EXACT_MASS>
488.31378912

> <PUBCHEM_MOLECULAR_FORMULA>
C29H44O6

> <PUBCHEM_MOLECULAR_WEIGHT>
488.7

> <PUBCHEM_OPENEYE_CAN_SMILES>
CCCCCCC(CC=CCCCCCCCC1=CC(=CC(=C1)OC(=O)C)OC(=O)C)OC(=O)C

> <PUBCHEM_OPENEYE_ISO_SMILES>
CCCCCC[C@@H](C/C=C\CCCCCCCC1=CC(=CC(=C1)OC(=O)C)OC(=O)C)OC(=O)C

> <PUBCHEM_CACTVS_TPSA>
78.9

> <PUBCHEM_MONOISOTOPIC_WEIGHT>
488.31378912

> <PUBCHEM_TOTAL_CHARGE>
0

> <PUBCHEM_HEAVY_ATOM_COUNT>
35

> <PUBCHEM_ATOM_DEF_STEREO_COUNT>
1

> <PUBCHEM_ATOM_UDEF_STEREO_COUNT>
0

> <PUBCHEM_BOND_DEF_STEREO_COUNT>
1

> <PUBCHEM_BOND_UDEF_STEREO_COUNT>
0

> <PUBCHEM_ISOTOPIC_ATOM_COUNT>
0

> <PUBCHEM_COMPONENT_COUNT>
1

> <PUBCHEM_CACTVS_TAUTO_COUNT>
-1

> <PUBCHEM_COORDINATE_TYPE>
1
5
255

> <PUBCHEM_BONDANNOTATIONS>
8  1  5
23  25  8
23  26  8
25  29  8
26  28  8
28  30  8
29  30  8

$$$$
