44412799
  -OEChem-05162309552D

 73 75  0     1  0  0  0  0  0999 V2000
    4.2740    0.5971    0.0000 O   0  0  0  0  0  0  0  0  0  0  0  0
    5.1304    3.1004    0.0000 O   0  0  0  0  0  0  0  0  0  0  0  0
   18.1926   -2.3654    0.0000 O   0  0  0  0  0  0  0  0  0  0  0  0
   15.5945   -2.8654    0.0000 O   0  0  0  0  0  0  0  0  0  0  0  0
    2.5381    1.5904    0.0000 O   0  0  0  0  0  0  0  0  0  0  0  0
   18.1926   -4.3654    0.0000 O   0  0  0  0  0  0  0  0  0  0  0  0
    6.0061    0.6038    0.0000 O   0  0  0  0  0  0  0  0  0  0  0  0
   17.3265   -0.8654    0.0000 O   0  0  0  0  0  0  0  0  0  0  0  0
    7.7342    1.6105    0.0000 O   0  0  0  0  0  0  0  0  0  0  0  0
   15.5945    0.1346    0.0000 O   0  0  0  0  0  0  0  0  0  0  0  0
   11.2644    1.6346    0.0000 O   0  0  0  0  0  0  0  0  0  0  0  0
    6.8624    3.1071    0.0000 O   0  0  0  0  0  0  0  0  0  0  0  0
   14.7285   -1.3654    0.0000 O   0  0  0  0  0  0  0  0  0  0  0  0
    9.5160    4.6692    0.0000 O   0  0  0  0  0  0  0  0  0  0  0  0
   12.9964    3.6346    0.0000 O   0  0  0  0  0  0  0  0  0  0  0  0
   11.2644    4.6346    0.0000 O   0  0  0  0  0  0  0  0  0  0  0  0
    4.2702    1.5971    0.0000 C   0  0  1  0  0  0  0  0  0  0  0  0
    5.1343    2.1004    0.0000 C   0  0  1  0  0  0  0  0  0  0  0  0
   17.3265   -2.8654    0.0000 C   0  0  1  0  0  0  0  0  0  0  0  0
   16.4605   -2.3654    0.0000 C   0  0  1  0  0  0  0  0  0  0  0  0
    3.4022    2.0938    0.0000 C   0  0  1  0  0  0  0  0  0  0  0  0
   17.3265   -3.8654    0.0000 C   0  0  1  0  0  0  0  0  0  0  0  0
    6.0022    1.6038    0.0000 C   0  0  1  0  0  0  0  0  0  0  0  0
   16.4605   -1.3654    0.0000 C   0  0  1  0  0  0  0  0  0  0  0  0
    3.3984    3.0938    0.0000 C   0  0  0  0  0  0  0  0  0  0  0  0
   16.4605   -4.3654    0.0000 C   0  0  0  0  0  0  0  0  0  0  0  0
    6.8663    2.1071    0.0000 C   0  0  0  0  0  0  0  0  0  0  0  0
   15.5945   -0.8654    0.0000 C   0  0  0  0  0  0  0  0  0  0  0  0
    8.5983    2.1138    0.0000 C   0  0  0  0  0  0  0  0  0  0  0  0
   10.3983    3.1346    0.0000 C   0  0  0  0  0  0  0  0  0  0  0  0
   10.3983    2.1346    0.0000 C   0  0  0  0  0  0  0  0  0  0  0  0
   12.1304    2.1346    0.0000 C   0  0  0  0  0  0  0  0  0  0  0  0
    9.5044    1.6000    0.0000 C   0  0  0  0  0  0  0  0  0  0  0  0
   12.9964    1.6346    0.0000 C   0  0  0  0  0  0  0  0  0  0  0  0
   14.7285    0.6346    0.0000 C   0  0  0  0  0  0  0  0  0  0  0  0
    9.5044    3.6693    0.0000 C   0  0  0  0  0  0  0  0  0  0  0  0
    8.5983    3.1554    0.0000 C   0  0  0  0  0  0  0  0  0  0  0  0
   11.2644    3.6346    0.0000 C   0  0  0  0  0  0  0  0  0  0  0  0
   12.1304    3.1346    0.0000 C   0  0  0  0  0  0  0  0  0  0  0  0
   13.8624    2.1346    0.0000 C   0  0  0  0  0  0  0  0  0  0  0  0
   12.9964    0.6346    0.0000 C   0  0  0  0  0  0  0  0  0  0  0  0
   14.7285    1.6346    0.0000 C   0  0  0  0  0  0  0  0  0  0  0  0
   13.8624    0.1346    0.0000 C   0  0  0  0  0  0  0  0  0  0  0  0
    3.7344    1.2850    0.0000 H   0  0  0  0  0  0  0  0  0  0  0  0
    5.6700    2.4125    0.0000 H   0  0  0  0  0  0  0  0  0  0  0  0
   17.8635   -3.1754    0.0000 H   0  0  0  0  0  0  0  0  0  0  0  0
   15.9236   -2.0554    0.0000 H   0  0  0  0  0  0  0  0  0  0  0  0
    2.8641    2.4017    0.0000 H   0  0  0  0  0  0  0  0  0  0  0  0
   17.3265   -4.4854    0.0000 H   0  0  0  0  0  0  0  0  0  0  0  0
    5.4665    1.2917    0.0000 H   0  0  0  0  0  0  0  0  0  0  0  0
   16.9975   -1.6754    0.0000 H   0  0  0  0  0  0  0  0  0  0  0  0
    4.0184    3.0962    0.0000 H   0  0  0  0  0  0  0  0  0  0  0  0
    3.3960    3.7138    0.0000 H   0  0  0  0  0  0  0  0  0  0  0  0
    2.7784    3.0914    0.0000 H   0  0  0  0  0  0  0  0  0  0  0  0
   16.1505   -3.8285    0.0000 H   0  0  0  0  0  0  0  0  0  0  0  0
   15.9236   -4.6754    0.0000 H   0  0  0  0  0  0  0  0  0  0  0  0
   16.7705   -4.9023    0.0000 H   0  0  0  0  0  0  0  0  0  0  0  0
    3.7383    0.2850    0.0000 H   0  0  0  0  0  0  0  0  0  0  0  0
    4.5923    3.4084    0.0000 H   0  0  0  0  0  0  0  0  0  0  0  0
   18.7295   -2.6754    0.0000 H   0  0  0  0  0  0  0  0  0  0  0  0
   15.5945   -3.4854    0.0000 H   0  0  0  0  0  0  0  0  0  0  0  0
    2.0000    1.8984    0.0000 H   0  0  0  0  0  0  0  0  0  0  0  0
   18.1926   -4.9854    0.0000 H   0  0  0  0  0  0  0  0  0  0  0  0
    5.4703    0.2917    0.0000 H   0  0  0  0  0  0  0  0  0  0  0  0
   17.8635   -1.1754    0.0000 H   0  0  0  0  0  0  0  0  0  0  0  0
    9.5116    0.9800    0.0000 H   0  0  0  0  0  0  0  0  0  0  0  0
    8.0626    3.4675    0.0000 H   0  0  0  0  0  0  0  0  0  0  0  0
   13.8624    2.7546    0.0000 H   0  0  0  0  0  0  0  0  0  0  0  0
   12.4595    0.3246    0.0000 H   0  0  0  0  0  0  0  0  0  0  0  0
   15.2654    1.9446    0.0000 H   0  0  0  0  0  0  0  0  0  0  0  0
   13.8624   -0.4854    0.0000 H   0  0  0  0  0  0  0  0  0  0  0  0
    8.9826    4.9854    0.0000 H   0  0  0  0  0  0  0  0  0  0  0  0
   12.9964    4.2546    0.0000 H   0  0  0  0  0  0  0  0  0  0  0  0
 17  1  1  6  0  0  0
  1 58  1  0  0  0  0
 18  2  1  6  0  0  0
  2 59  1  0  0  0  0
 19  3  1  6  0  0  0
  3 60  1  0  0  0  0
 20  4  1  6  0  0  0
  4 61  1  0  0  0  0
 21  5  1  6  0  0  0
  5 62  1  0  0  0  0
 22  6  1  6  0  0  0
  6 63  1  0  0  0  0
 23  7  1  1  0  0  0
  7 64  1  0  0  0  0
 24  8  1  1  0  0  0
  8 65  1  0  0  0  0
  9 27  1  0  0  0  0
  9 29  1  0  0  0  0
 10 28  1  0  0  0  0
 10 35  1  0  0  0  0
 11 31  1  0  0  0  0
 11 32  1  0  0  0  0
 12 27  2  0  0  0  0
 13 28  2  0  0  0  0
 14 36  1  0  0  0  0
 14 72  1  0  0  0  0
 15 39  1  0  0  0  0
 15 73  1  0  0  0  0
 16 38  2  0  0  0  0
 17 18  1  0  0  0  0
 17 21  1  0  0  0  0
 17 44  1  0  0  0  0
 18 23  1  0  0  0  0
 18 45  1  0  0  0  0
 19 20  1  0  0  0  0
 19 22  1  0  0  0  0
 19 46  1  0  0  0  0
 20 24  1  0  0  0  0
 20 47  1  0  0  0  0
 21 25  1  0  0  0  0
 21 48  1  0  0  0  0
 22 26  1  0  0  0  0
 22 49  1  0  0  0  0
 23 27  1  0  0  0  0
 23 50  1  0  0  0  0
 24 28  1  0  0  0  0
 24 51  1  0  0  0  0
 25 52  1  0  0  0  0
 25 53  1  0  0  0  0
 25 54  1  0  0  0  0
 26 55  1  0  0  0  0
 26 56  1  0  0  0  0
 26 57  1  0  0  0  0
 29 33  1  0  0  0  0
 29 37  2  0  0  0  0
 30 31  1  0  0  0  0
 30 36  2  0  0  0  0
 30 38  1  0  0  0  0
 31 33  2  0  0  0  0
 32 34  1  0  0  0  0
 32 39  2  0  0  0  0
 33 66  1  0  0  0  0
 34 40  2  0  0  0  0
 34 41  1  0  0  0  0
 35 42  2  0  0  0  0
 35 43  1  0  0  0  0
 36 37  1  0  0  0  0
 37 67  1  0  0  0  0
 38 39  1  0  0  0  0
 40 42  1  0  0  0  0
 40 68  1  0  0  0  0
 41 43  2  0  0  0  0
 41 69  1  0  0  0  0
 42 70  1  0  0  0  0
 43 71  1  0  0  0  0
M  END
> <PUBCHEM_COMPOUND_CID>
44412799

> <PUBCHEM_COMPOUND_CANONICALIZED>
1

> <PUBCHEM_CACTVS_COMPLEXITY>
1020

> <PUBCHEM_CACTVS_HBOND_ACCEPTOR>
16

> <PUBCHEM_CACTVS_HBOND_DONOR>
10

> <PUBCHEM_CACTVS_ROTATABLE_BOND>
13

> <PUBCHEM_CACTVS_SUBSKEYS>
AAADceB4PgAAAAAAAAAAAAAAAAAAAAAAAAAwYIAAAAAAAACBQAAAGgAACAAADBSgmAIyDoAABgCIAqDSCAICCAAkIAAIiAFGCMgNNzaGNRqCe2Cl4BULuQfK7KzOIAAACAAIAABAAAAQABAAAAAAAAAAAA==

> <PUBCHEM_IUPAC_OPENEYE_NAME>
[4-[3,5-dihydroxy-4-oxo-7-[(2S,3S,4R,5R)-2,3,4,5-tetrahydroxyhexanoyl]oxy-chromen-2-yl]phenyl] (2S,3S,4R,5R)-2,3,4,5-tetrahydroxyhexanoate

> <PUBCHEM_IUPAC_CAS_NAME>
(2S,3S,4R,5R)-2,3,4,5-tetrahydroxyhexanoic acid [4-[3,5-dihydroxy-4-oxo-7-[(2S,3S,4R,5R)-2,3,4,5-tetrahydroxy-1-oxohexoxy]-1-benzopyran-2-yl]phenyl] ester

> <PUBCHEM_IUPAC_NAME_MARKUP>
[4-[3,5-dihydroxy-4-oxo-7-[(2<I>S</I>,3<I>S</I>,4<I>R</I>,5<I>R</I>)-2,3,4,5-tetrahydroxyhexanoyl]oxychromen-2-yl]phenyl] (2<I>S</I>,3<I>S</I>,4<I>R</I>,5<I>R</I>)-2,3,4,5-tetrahydroxyhexanoate

> <PUBCHEM_IUPAC_NAME>
[4-[3,5-dihydroxy-4-oxo-7-[(2S,3S,4R,5R)-2,3,4,5-tetrahydroxyhexanoyl]oxychromen-2-yl]phenyl] (2S,3S,4R,5R)-2,3,4,5-tetrahydroxyhexanoate

> <PUBCHEM_IUPAC_SYSTEMATIC_NAME>
[4-[3,5-bis(oxidanyl)-4-oxidanylidene-7-[(2S,3S,4R,5R)-2,3,4,5-tetrakis(oxidanyl)hexanoyl]oxy-chromen-2-yl]phenyl] (2S,3S,4R,5R)-2,3,4,5-tetrakis(oxidanyl)hexanoate

> <PUBCHEM_IUPAC_TRADITIONAL_NAME>
(2S,3S,4R,5R)-2,3,4,5-tetrahydroxyhexanoic acid [4-[3,5-dihydroxy-4-keto-7-[(2S,3S,4R,5R)-2,3,4,5-tetrahydroxyhexanoyl]oxy-chromen-2-yl]phenyl] ester

> <PUBCHEM_IUPAC_INCHI>
InChI=1S/C27H30O16/c1-9(28)17(31)20(34)23(37)26(39)41-12-5-3-11(4-6-12)25-22(36)19(33)16-14(30)7-13(8-15(16)43-25)42-27(40)24(38)21(35)18(32)10(2)29/h3-10,17-18,20-21,23-24,28-32,34-38H,1-2H3/t9-,10-,17-,18-,20+,21+,23+,24+/m1/s1

> <PUBCHEM_IUPAC_INCHIKEY>
GQVHWSCAXZGPOV-MVZRGGIPSA-N

> <PUBCHEM_XLOGP3_AA>
-1.5

> <PUBCHEM_EXACT_MASS>
610.15338487

> <PUBCHEM_MOLECULAR_FORMULA>
C27H30O16

> <PUBCHEM_MOLECULAR_WEIGHT>
610.5

> <PUBCHEM_OPENEYE_CAN_SMILES>
CC(C(C(C(C(=O)OC1=CC=C(C=C1)C2=C(C(=O)C3=C(C=C(C=C3O2)OC(=O)C(C(C(C(C)O)O)O)O)O)O)O)O)O)O

> <PUBCHEM_OPENEYE_ISO_SMILES>
C[C@H]([C@H]([C@@H]([C@@H](C(=O)OC1=CC=C(C=C1)C2=C(C(=O)C3=C(C=C(C=C3O2)OC(=O)[C@H]([C@H]([C@@H]([C@@H](C)O)O)O)O)O)O)O)O)O)O

> <PUBCHEM_CACTVS_TPSA>
281

> <PUBCHEM_MONOISOTOPIC_WEIGHT>
610.15338487

> <PUBCHEM_TOTAL_CHARGE>
0

> <PUBCHEM_HEAVY_ATOM_COUNT>
43

> <PUBCHEM_ATOM_DEF_STEREO_COUNT>
8

> <PUBCHEM_ATOM_UDEF_STEREO_COUNT>
0

> <PUBCHEM_BOND_DEF_STEREO_COUNT>
0

> <PUBCHEM_BOND_UDEF_STEREO_COUNT>
0

> <PUBCHEM_ISOTOPIC_ATOM_COUNT>
0

> <PUBCHEM_COMPONENT_COUNT>
1

> <PUBCHEM_CACTVS_TAUTO_COUNT>
-1

> <PUBCHEM_COORDINATE_TYPE>
1
5
255

> <PUBCHEM_BONDANNOTATIONS>
17  1  6
11  31  8
11  32  8
18  2  6
29  33  8
29  37  8
19  3  6
30  31  8
30  36  8
30  38  8
31  33  8
32  39  8
34  40  8
34  41  8
35  42  8
35  43  8
36  37  8
38  39  8
20  4  6
40  42  8
41  43  8
21  5  6
22  6  6
23  7  5
24  8  5

$$$$
