6450453
  -OEChem-05162310352D

 57 59  0     1  0  0  0  0  0999 V2000
    6.9059   -2.6775    0.0000 O   0  0  0  0  0  0  0  0  0  0  0  0
    5.1357   -0.6187    0.0000 O   0  0  0  0  0  0  0  0  0  0  0  0
    6.9174    0.3918    0.0000 O   0  0  0  0  0  0  0  0  0  0  0  0
    8.6498    0.3987    0.0000 O   0  0  0  0  0  0  0  0  0  0  0  0
    4.2639   -2.1153    0.0000 O   0  0  0  0  0  0  0  0  0  0  0  0
    5.1855    0.4118    0.0000 O   0  0  0  0  0  0  0  0  0  0  0  0
    9.5440    1.9264    0.0000 O   0  0  0  0  0  0  0  0  0  0  0  0
    5.9998   -2.1637    0.0000 C   0  0  0  0  0  0  0  0  0  0  0  0
    5.9998   -1.1220    0.0000 C   0  0  3  0  0  0  0  0  0  0  0  0
    6.9059   -0.6082    0.0000 C   0  0  3  0  0  0  0  0  0  0  0  0
    7.7998   -1.1428    0.0000 C   0  0  0  0  0  0  0  0  0  0  0  0
    7.7998   -2.1428    0.0000 C   0  0  0  0  0  0  0  0  0  0  0  0
    5.5032   -3.0316    0.0000 C   0  0  0  0  0  0  0  0  0  0  0  0
    4.9998   -2.1675    0.0000 C   0  0  0  0  0  0  0  0  0  0  0  0
    8.6658   -0.6428    0.0000 C   0  0  0  0  0  0  0  0  0  0  0  0
    8.6658   -2.6428    0.0000 C   0  0  0  0  0  0  0  0  0  0  0  0
    9.5319   -1.1428    0.0000 C   0  0  0  0  0  0  0  0  0  0  0  0
    9.5319   -2.1428    0.0000 C   0  0  0  0  0  0  0  0  0  0  0  0
    4.2678   -1.1154    0.0000 C   0  0  0  0  0  0  0  0  0  0  0  0
    6.0573    0.9017    0.0000 C   0  0  0  0  0  0  0  0  0  0  0  0
   10.4419   -0.6360    0.0000 C   0  0  0  0  0  0  0  0  0  0  0  0
    9.5478    0.9264    0.0000 C   0  0  0  0  0  0  0  0  0  0  0  0
   10.4499    0.4056    0.0000 C   0  0  0  0  0  0  0  0  0  0  0  0
    3.4037   -0.6120    0.0000 C   0  0  0  0  0  0  0  0  0  0  0  0
    6.0688    1.9017    0.0000 C   0  0  0  0  0  0  0  0  0  0  0  0
    3.4075    0.3880    0.0000 C   0  0  0  0  0  0  0  0  0  0  0  0
    2.5357   -1.1087    0.0000 C   0  0  0  0  0  0  0  0  0  0  0  0
    6.9406    2.3916    0.0000 C   0  0  0  0  0  0  0  0  0  0  0  0
    5.2086    2.4116    0.0000 C   0  0  0  0  0  0  0  0  0  0  0  0
    2.5319   -2.1087    0.0000 C   0  0  0  0  0  0  0  0  0  0  0  0
    4.3369    1.9217    0.0000 C   0  0  0  0  0  0  0  0  0  0  0  0
    5.2629   -1.5456    0.0000 H   0  0  0  0  0  0  0  0  0  0  0  0
    6.1739   -0.1761    0.0000 H   0  0  0  0  0  0  0  0  0  0  0  0
    4.9650   -2.7237    0.0000 H   0  0  0  0  0  0  0  0  0  0  0  0
    5.1952   -3.5697    0.0000 H   0  0  0  0  0  0  0  0  0  0  0  0
    6.0413   -3.3395    0.0000 H   0  0  0  0  0  0  0  0  0  0  0  0
    4.9974   -1.5475    0.0000 H   0  0  0  0  0  0  0  0  0  0  0  0
    4.3798   -2.1699    0.0000 H   0  0  0  0  0  0  0  0  0  0  0  0
    5.0022   -2.7875    0.0000 H   0  0  0  0  0  0  0  0  0  0  0  0
    8.6658   -3.2628    0.0000 H   0  0  0  0  0  0  0  0  0  0  0  0
   10.0688   -2.4528    0.0000 H   0  0  0  0  0  0  0  0  0  0  0  0
   10.9752   -0.9522    0.0000 H   0  0  0  0  0  0  0  0  0  0  0  0
   10.9880    0.7135    0.0000 H   0  0  0  0  0  0  0  0  0  0  0  0
    4.0275    0.3856    0.0000 H   0  0  0  0  0  0  0  0  0  0  0  0
    3.4099    1.0080    0.0000 H   0  0  0  0  0  0  0  0  0  0  0  0
    2.7875    0.3904    0.0000 H   0  0  0  0  0  0  0  0  0  0  0  0
    2.0000   -0.7966    0.0000 H   0  0  0  0  0  0  0  0  0  0  0  0
    7.2443    1.8511    0.0000 H   0  0  0  0  0  0  0  0  0  0  0  0
    7.4810    2.6954    0.0000 H   0  0  0  0  0  0  0  0  0  0  0  0
    6.6368    2.9321    0.0000 H   0  0  0  0  0  0  0  0  0  0  0  0
    5.2158    3.0316    0.0000 H   0  0  0  0  0  0  0  0  0  0  0  0
    1.9119   -2.1063    0.0000 H   0  0  0  0  0  0  0  0  0  0  0  0
    2.5295   -2.7287    0.0000 H   0  0  0  0  0  0  0  0  0  0  0  0
    3.1519   -2.1111    0.0000 H   0  0  0  0  0  0  0  0  0  0  0  0
    4.0331    2.4622    0.0000 H   0  0  0  0  0  0  0  0  0  0  0  0
    3.7964    1.6179    0.0000 H   0  0  0  0  0  0  0  0  0  0  0  0
    4.6407    1.3812    0.0000 H   0  0  0  0  0  0  0  0  0  0  0  0
  1  8  1  0  0  0  0
  1 12  1  0  0  0  0
  2  9  1  0  0  0  0
  2 19  1  0  0  0  0
  3 10  1  0  0  0  0
  3 20  1  0  0  0  0
  4 15  1  0  0  0  0
  4 22  1  0  0  0  0
  5 19  2  0  0  0  0
  6 20  2  0  0  0  0
  7 22  2  0  0  0  0
  8  9  1  0  0  0  0
  8 13  1  0  0  0  0
  8 14  1  0  0  0  0
  9 10  1  0  0  0  0
  9 32  1  0  0  0  0
 10 11  1  0  0  0  0
 10 33  1  0  0  0  0
 11 12  2  0  0  0  0
 11 15  1  0  0  0  0
 12 16  1  0  0  0  0
 13 34  1  0  0  0  0
 13 35  1  0  0  0  0
 13 36  1  0  0  0  0
 14 37  1  0  0  0  0
 14 38  1  0  0  0  0
 14 39  1  0  0  0  0
 15 17  2  0  0  0  0
 16 18  2  0  0  0  0
 16 40  1  0  0  0  0
 17 18  1  0  0  0  0
 17 21  1  0  0  0  0
 18 41  1  0  0  0  0
 19 24  1  0  0  0  0
 20 25  1  0  0  0  0
 21 23  2  0  0  0  0
 21 42  1  0  0  0  0
 22 23  1  0  0  0  0
 23 43  1  0  0  0  0
 24 26  1  0  0  0  0
 24 27  2  0  0  0  0
 25 28  1  0  0  0  0
 25 29  2  0  0  0  0
 26 44  1  0  0  0  0
 26 45  1  0  0  0  0
 26 46  1  0  0  0  0
 27 30  1  0  0  0  0
 27 47  1  0  0  0  0
 28 48  1  0  0  0  0
 28 49  1  0  0  0  0
 28 50  1  0  0  0  0
 29 31  1  0  0  0  0
 29 51  1  0  0  0  0
 30 52  1  0  0  0  0
 30 53  1  0  0  0  0
 30 54  1  0  0  0  0
 31 55  1  0  0  0  0
 31 56  1  0  0  0  0
 31 57  1  0  0  0  0
M  END
> <PUBCHEM_COMPOUND_CID>
6450453

> <PUBCHEM_COMPOUND_CANONICALIZED>
1

> <PUBCHEM_CACTVS_COMPLEXITY>
835

> <PUBCHEM_CACTVS_HBOND_ACCEPTOR>
7

> <PUBCHEM_CACTVS_HBOND_DONOR>
0

> <PUBCHEM_CACTVS_ROTATABLE_BOND>
6

> <PUBCHEM_CACTVS_SUBSKEYS>
AAADceB4OAAAAAAAAAAAAAAAAAAAAAAAAAA0QIAAAAAAAACRAAAAGgAAAAAADFSgmAIyDoAABACIAiDSCAACCAAgIAAIiAEGCMgNJyKEMRqCOiClwBUKqYfA4PwOIAACCAAIAABAAAQQABAAAAAAAAAAAA==

> <PUBCHEM_IUPAC_OPENEYE_NAME>
[8,8-dimethyl-9-[(Z)-2-methylbut-2-enoyl]oxy-2-oxo-9,10-dihydropyrano[2,3-f]chromen-10-yl] (Z)-2-methylbut-2-enoate

> <PUBCHEM_IUPAC_CAS_NAME>
(Z)-2-methyl-2-butenoic acid [8,8-dimethyl-9-[(Z)-2-methyl-1-oxobut-2-enoxy]-2-oxo-9,10-dihydropyrano[2,3-f][1]benzopyran-10-yl] ester

> <PUBCHEM_IUPAC_NAME_MARKUP>
[8,8-dimethyl-9-[(<I>Z</I>)-2-methylbut-2-enoyl]oxy-2-oxo-9,10-dihydropyrano[2,3-f]chromen-10-yl] (<I>Z</I>)-2-methylbut-2-enoate

> <PUBCHEM_IUPAC_NAME>
[8,8-dimethyl-9-[(Z)-2-methylbut-2-enoyl]oxy-2-oxo-9,10-dihydropyrano[2,3-f]chromen-10-yl] (Z)-2-methylbut-2-enoate

> <PUBCHEM_IUPAC_SYSTEMATIC_NAME>
[8,8-dimethyl-9-[(Z)-2-methylbut-2-enoyl]oxy-2-oxidanylidene-9,10-dihydropyrano[2,3-f]chromen-10-yl] (Z)-2-methylbut-2-enoate

> <PUBCHEM_IUPAC_TRADITIONAL_NAME>
(Z)-2-methylbut-2-enoic acid [2-keto-8,8-dimethyl-9-[(Z)-2-methylbut-2-enoyl]oxy-9,10-dihydropyrano[2,3-f]chromen-10-yl] ester

> <PUBCHEM_IUPAC_INCHI>
InChI=1S/C24H26O7/c1-7-13(3)22(26)29-20-18-16(11-9-15-10-12-17(25)28-19(15)18)31-24(5,6)21(20)30-23(27)14(4)8-2/h7-12,20-21H,1-6H3/b13-7-,14-8-

> <PUBCHEM_IUPAC_INCHIKEY>
PNTWXEIQXBRCPS-PVRNWPCDSA-N

> <PUBCHEM_XLOGP3_AA>
4.3

> <PUBCHEM_EXACT_MASS>
426.16785316

> <PUBCHEM_MOLECULAR_FORMULA>
C24H26O7

> <PUBCHEM_MOLECULAR_WEIGHT>
426.5

> <PUBCHEM_OPENEYE_CAN_SMILES>
CC=C(C)C(=O)OC1C(C(OC2=C1C3=C(C=C2)C=CC(=O)O3)(C)C)OC(=O)C(=CC)C

> <PUBCHEM_OPENEYE_ISO_SMILES>
C/C=C(/C)\C(=O)OC1C(C(OC2=C1C3=C(C=C2)C=CC(=O)O3)(C)C)OC(=O)/C(=C\C)/C

> <PUBCHEM_CACTVS_TPSA>
88.1

> <PUBCHEM_MONOISOTOPIC_WEIGHT>
426.16785316

> <PUBCHEM_TOTAL_CHARGE>
0

> <PUBCHEM_HEAVY_ATOM_COUNT>
31

> <PUBCHEM_ATOM_DEF_STEREO_COUNT>
0

> <PUBCHEM_ATOM_UDEF_STEREO_COUNT>
2

> <PUBCHEM_BOND_DEF_STEREO_COUNT>
2

> <PUBCHEM_BOND_UDEF_STEREO_COUNT>
0

> <PUBCHEM_ISOTOPIC_ATOM_COUNT>
0

> <PUBCHEM_COMPONENT_COUNT>
1

> <PUBCHEM_CACTVS_TAUTO_COUNT>
1

> <PUBCHEM_COORDINATE_TYPE>
1
5
255

> <PUBCHEM_BONDANNOTATIONS>
10  33  3
11  12  8
11  15  8
12  16  8
15  17  8
16  18  8
17  18  8
17  21  8
21  23  8
22  23  8
4  15  8
4  22  8
9  32  3

$$$$
