46230170
  -OEChem-05162310172D

 65 67  0     1  0  0  0  0  0999 V2000
    6.4697   -1.4649    0.0000 O   0  0  0  0  0  0  0  0  0  0  0  0
   11.4516   -0.5469    0.0000 O   0  0  0  0  0  0  0  0  0  0  0  0
   13.2395    3.4948    0.0000 O   0  0  0  0  0  0  0  0  0  0  0  0
    6.4897   -3.1968    0.0000 O   0  0  0  0  0  0  0  0  0  0  0  0
    2.9999   -4.1033    0.0000 O   0  0  0  0  0  0  0  0  0  0  0  0
    2.9799   -2.3713    0.0000 O   0  0  0  0  0  0  0  0  0  0  0  0
    8.8535   -0.0469    0.0000 C   0  0  2  0  0  0  0  0  0  0  0  0
    8.8535    0.9531    0.0000 C   0  0  2  0  0  0  0  0  0  0  0  0
    7.9595   -0.5816    0.0000 C   0  0  1  0  0  0  0  0  0  0  0  0
    7.9595    1.4877    0.0000 C   0  0  0  0  0  0  0  0  0  0  0  0
    7.0535   -0.0677    0.0000 C   0  0  0  0  0  0  0  0  0  0  0  0
    7.0535    0.9739    0.0000 C   0  0  0  0  0  0  0  0  0  0  0  0
    9.7195   -0.5469    0.0000 C   0  0  0  0  0  0  0  0  0  0  0  0
    9.7195    1.4531    0.0000 C   0  0  0  0  0  0  0  0  0  0  0  0
    7.4696   -1.4533    0.0000 C   0  0  0  0  0  0  0  0  0  0  0  0
    8.8535    1.9531    0.0000 C   0  0  0  0  0  0  0  0  0  0  0  0
    8.4695   -1.4418    0.0000 C   0  0  0  0  0  0  0  0  0  0  0  0
   10.5855    0.9531    0.0000 C   0  0  0  0  0  0  0  0  0  0  0  0
   10.5855   -0.0469    0.0000 C   0  0  0  0  0  0  0  0  0  0  0  0
    9.7034    2.4946    0.0000 C   0  0  0  0  0  0  0  0  0  0  0  0
   11.4955    1.4599    0.0000 C   0  0  0  0  0  0  0  0  0  0  0  0
   11.5036    2.5015    0.0000 C   0  0  0  0  0  0  0  0  0  0  0  0
   10.6015    3.0223    0.0000 C   0  0  0  0  0  0  0  0  0  0  0  0
   12.3715    2.9982    0.0000 C   0  0  0  0  0  0  0  0  0  0  0  0
    5.9797   -2.3366    0.0000 C   0  0  0  0  0  0  0  0  0  0  0  0
   11.8749    3.8661    0.0000 C   0  0  0  0  0  0  0  0  0  0  0  0
   12.8682    2.1302    0.0000 C   0  0  0  0  0  0  0  0  0  0  0  0
    4.9798   -2.3482    0.0000 C   0  0  0  0  0  0  0  0  0  0  0  0
    4.4898   -3.2200    0.0000 C   0  0  0  0  0  0  0  0  0  0  0  0
    3.4899   -3.2315    0.0000 C   0  0  0  0  0  0  0  0  0  0  0  0
    2.0000   -4.1148    0.0000 C   0  0  0  0  0  0  0  0  0  0  0  0
    8.8600   -0.8969    0.0000 H   0  0  0  0  0  0  0  0  0  0  0  0
    8.3641    1.9575    0.0000 H   0  0  0  0  0  0  0  0  0  0  0  0
    7.5659    1.9668    0.0000 H   0  0  0  0  0  0  0  0  0  0  0  0
    6.4426    0.0384    0.0000 H   0  0  0  0  0  0  0  0  0  0  0  0
    6.8444   -0.6514    0.0000 H   0  0  0  0  0  0  0  0  0  0  0  0
    6.8444    1.5576    0.0000 H   0  0  0  0  0  0  0  0  0  0  0  0
    6.4426    0.8678    0.0000 H   0  0  0  0  0  0  0  0  0  0  0  0
    9.3210   -1.0219    0.0000 H   0  0  0  0  0  0  0  0  0  0  0  0
   10.1180   -1.0219    0.0000 H   0  0  0  0  0  0  0  0  0  0  0  0
    7.3690   -2.0651    0.0000 H   0  0  0  0  0  0  0  0  0  0  0  0
    8.0546   -1.6586    0.0000 H   0  0  0  0  0  0  0  0  0  0  0  0
    9.4735    1.9531    0.0000 H   0  0  0  0  0  0  0  0  0  0  0  0
    8.8535    2.5731    0.0000 H   0  0  0  0  0  0  0  0  0  0  0  0
    8.2335    1.9531    0.0000 H   0  0  0  0  0  0  0  0  0  0  0  0
    7.9362   -1.7580    0.0000 H   0  0  0  0  0  0  0  0  0  0  0  0
    8.7857   -1.9751    0.0000 H   0  0  0  0  0  0  0  0  0  0  0  0
    9.0028   -1.1256    0.0000 H   0  0  0  0  0  0  0  0  0  0  0  0
    9.1630    2.7984    0.0000 H   0  0  0  0  0  0  0  0  0  0  0  0
   12.0289    1.1437    0.0000 H   0  0  0  0  0  0  0  0  0  0  0  0
   10.5991    3.6423    0.0000 H   0  0  0  0  0  0  0  0  0  0  0  0
   12.4130    4.1741    0.0000 H   0  0  0  0  0  0  0  0  0  0  0  0
   11.5669    4.4042    0.0000 H   0  0  0  0  0  0  0  0  0  0  0  0
   11.3367    3.5582    0.0000 H   0  0  0  0  0  0  0  0  0  0  0  0
   12.3300    1.8223    0.0000 H   0  0  0  0  0  0  0  0  0  0  0  0
   13.1761    1.5921    0.0000 H   0  0  0  0  0  0  0  0  0  0  0  0
   13.4063    2.4382    0.0000 H   0  0  0  0  0  0  0  0  0  0  0  0
    5.0804   -1.7364    0.0000 H   0  0  0  0  0  0  0  0  0  0  0  0
    4.3948   -2.1429    0.0000 H   0  0  0  0  0  0  0  0  0  0  0  0
   13.2418    4.1148    0.0000 H   0  0  0  0  0  0  0  0  0  0  0  0
    4.3892   -3.8317    0.0000 H   0  0  0  0  0  0  0  0  0  0  0  0
    5.0748   -3.4253    0.0000 H   0  0  0  0  0  0  0  0  0  0  0  0
    1.9928   -3.4949    0.0000 H   0  0  0  0  0  0  0  0  0  0  0  0
    1.3800   -4.1220    0.0000 H   0  0  0  0  0  0  0  0  0  0  0  0
    2.0072   -4.7348    0.0000 H   0  0  0  0  0  0  0  0  0  0  0  0
  1 15  1  0  0  0  0
  1 25  1  0  0  0  0
  2 19  2  0  0  0  0
  3 24  1  0  0  0  0
  3 60  1  0  0  0  0
  4 25  2  0  0  0  0
  5 30  1  0  0  0  0
  5 31  1  0  0  0  0
  6 30  2  0  0  0  0
  7  8  1  0  0  0  0
  7  9  1  0  0  0  0
  7 13  1  0  0  0  0
  7 32  1  6  0  0  0
  8 10  1  0  0  0  0
  8 14  1  0  0  0  0
  8 16  1  1  0  0  0
  9 11  1  0  0  0  0
  9 15  1  0  0  0  0
  9 17  1  1  0  0  0
 10 12  1  0  0  0  0
 10 33  1  0  0  0  0
 10 34  1  0  0  0  0
 11 12  1  0  0  0  0
 11 35  1  0  0  0  0
 11 36  1  0  0  0  0
 12 37  1  0  0  0  0
 12 38  1  0  0  0  0
 13 19  1  0  0  0  0
 13 39  1  0  0  0  0
 13 40  1  0  0  0  0
 14 18  2  0  0  0  0
 14 20  1  0  0  0  0
 15 41  1  0  0  0  0
 15 42  1  0  0  0  0
 16 43  1  0  0  0  0
 16 44  1  0  0  0  0
 16 45  1  0  0  0  0
 17 46  1  0  0  0  0
 17 47  1  0  0  0  0
 17 48  1  0  0  0  0
 18 19  1  0  0  0  0
 18 21  1  0  0  0  0
 20 23  2  0  0  0  0
 20 49  1  0  0  0  0
 21 22  2  0  0  0  0
 21 50  1  0  0  0  0
 22 23  1  0  0  0  0
 22 24  1  0  0  0  0
 23 51  1  0  0  0  0
 24 26  1  0  0  0  0
 24 27  1  0  0  0  0
 25 28  1  0  0  0  0
 26 52  1  0  0  0  0
 26 53  1  0  0  0  0
 26 54  1  0  0  0  0
 27 55  1  0  0  0  0
 27 56  1  0  0  0  0
 27 57  1  0  0  0  0
 28 29  1  0  0  0  0
 28 58  1  0  0  0  0
 28 59  1  0  0  0  0
 29 30  1  0  0  0  0
 29 61  1  0  0  0  0
 29 62  1  0  0  0  0
 31 63  1  0  0  0  0
 31 64  1  0  0  0  0
 31 65  1  0  0  0  0
M  END
> <PUBCHEM_COMPOUND_CID>
46230170

> <PUBCHEM_COMPOUND_CANONICALIZED>
1

> <PUBCHEM_CACTVS_COMPLEXITY>
715

> <PUBCHEM_CACTVS_HBOND_ACCEPTOR>
6

> <PUBCHEM_CACTVS_HBOND_DONOR>
1

> <PUBCHEM_CACTVS_ROTATABLE_BOND>
8

> <PUBCHEM_CACTVS_SUBSKEYS>
AAADcfB4OAAAAAAAAAAAAAAAAAAAAAAAAAAwYMAAAAAAAADBAAAAGgAACAAAD0SgmAIyCIAABgCIAqDSCAACAAAkAAAIiAEACMgIJjKAFRCCcQAkwAEImYfLzPDPwAACAAAQAACAAAQAACAAAAAAAAAAAA==

> <PUBCHEM_IUPAC_OPENEYE_NAME>
O4-[[(1R,4aS,10aR)-7-(1-hydroxy-1-methyl-ethyl)-1,4a-dimethyl-9-oxo-3,4,10,10a-tetrahydro-2H-phenanthren-1-yl]methyl] O1-methyl butanedioate

> <PUBCHEM_IUPAC_CAS_NAME>
butanedioic acid O4-[[(1R,4aS,10aR)-7-(2-hydroxypropan-2-yl)-1,4a-dimethyl-9-oxo-3,4,10,10a-tetrahydro-2H-phenanthren-1-yl]methyl] ester O1-methyl ester

> <PUBCHEM_IUPAC_NAME_MARKUP>
4-<I>O</I>-[[(1<I>R</I>,4<I>a</I><I>S</I>,10<I>a</I><I>R</I>)-7-(2-hydroxypropan-2-yl)-1,4<I>a</I>-dimethyl-9-oxo-3,4,10,10<I>a</I>-tetrahydro-2<I>H</I>-phenanthren-1-yl]methyl] 1-<I>O</I>-methyl butanedioate

> <PUBCHEM_IUPAC_NAME>
4-O-[[(1R,4aS,10aR)-7-(2-hydroxypropan-2-yl)-1,4a-dimethyl-9-oxo-3,4,10,10a-tetrahydro-2H-phenanthren-1-yl]methyl] 1-O-methyl butanedioate

> <PUBCHEM_IUPAC_SYSTEMATIC_NAME>
O4-[[(1R,4aS,10aR)-1,4a-dimethyl-9-oxidanylidene-7-(2-oxidanylpropan-2-yl)-3,4,10,10a-tetrahydro-2H-phenanthren-1-yl]methyl] O1-methyl butanedioate

> <PUBCHEM_IUPAC_TRADITIONAL_NAME>
succinic acid O4-[[(1R,4aS,10aR)-7-(1-hydroxy-1-methyl-ethyl)-9-keto-1,4a-dimethyl-3,4,10,10a-tetrahydro-2H-phenanthren-1-yl]methyl] ester O1-methyl ester

> <PUBCHEM_IUPAC_INCHI>
InChI=1S/C25H34O6/c1-23(2,29)16-7-8-18-17(13-16)19(26)14-20-24(3,11-6-12-25(18,20)4)15-31-22(28)10-9-21(27)30-5/h7-8,13,20,29H,6,9-12,14-15H2,1-5H3/t20-,24-,25+/m0/s1

> <PUBCHEM_IUPAC_INCHIKEY>
ROSMMYVAOHMAGZ-KSNOWIBYSA-N

> <PUBCHEM_XLOGP3_AA>
3.5

> <PUBCHEM_EXACT_MASS>
430.23553880

> <PUBCHEM_MOLECULAR_FORMULA>
C25H34O6

> <PUBCHEM_MOLECULAR_WEIGHT>
430.5

> <PUBCHEM_OPENEYE_CAN_SMILES>
CC1(CCCC2(C1CC(=O)C3=C2C=CC(=C3)C(C)(C)O)C)COC(=O)CCC(=O)OC

> <PUBCHEM_OPENEYE_ISO_SMILES>
C[C@]1(CCC[C@]2([C@H]1CC(=O)C3=C2C=CC(=C3)C(C)(C)O)C)COC(=O)CCC(=O)OC

> <PUBCHEM_CACTVS_TPSA>
89.9

> <PUBCHEM_MONOISOTOPIC_WEIGHT>
430.23553880

> <PUBCHEM_TOTAL_CHARGE>
0

> <PUBCHEM_HEAVY_ATOM_COUNT>
31

> <PUBCHEM_ATOM_DEF_STEREO_COUNT>
3

> <PUBCHEM_ATOM_UDEF_STEREO_COUNT>
0

> <PUBCHEM_BOND_DEF_STEREO_COUNT>
0

> <PUBCHEM_BOND_UDEF_STEREO_COUNT>
0

> <PUBCHEM_ISOTOPIC_ATOM_COUNT>
0

> <PUBCHEM_COMPONENT_COUNT>
1

> <PUBCHEM_CACTVS_TAUTO_COUNT>
-1

> <PUBCHEM_COORDINATE_TYPE>
1
5
255

> <PUBCHEM_BONDANNOTATIONS>
14  18  8
14  20  8
18  21  8
20  23  8
21  22  8
22  23  8
7  32  6
8  16  5
9  17  5

$$$$
