46230077
  -OEChem-05162308562D

 66 68  0     1  0  0  0  0  0999 V2000
    6.0897   -1.6571    0.0000 O   0  0  0  0  0  0  0  0  0  0  0  0
   12.8595    3.3026    0.0000 O   0  0  0  0  0  0  0  0  0  0  0  0
    6.1097   -3.3890    0.0000 O   0  0  0  0  0  0  0  0  0  0  0  0
    2.6200   -4.2955    0.0000 O   0  0  0  0  0  0  0  0  0  0  0  0
    2.5999   -2.5635    0.0000 O   0  0  0  0  0  0  0  0  0  0  0  0
    8.4735   -0.2391    0.0000 C   0  0  2  0  0  0  0  0  0  0  0  0
    8.4735    0.7609    0.0000 C   0  0  2  0  0  0  0  0  0  0  0  0
    7.5796   -0.7738    0.0000 C   0  0  1  0  0  0  0  0  0  0  0  0
    7.5796    1.2955    0.0000 C   0  0  0  0  0  0  0  0  0  0  0  0
    6.6735   -0.2599    0.0000 C   0  0  0  0  0  0  0  0  0  0  0  0
    9.3395   -0.7391    0.0000 C   0  0  0  0  0  0  0  0  0  0  0  0
    6.6735    0.7817    0.0000 C   0  0  0  0  0  0  0  0  0  0  0  0
    9.3395    1.2609    0.0000 C   0  0  0  0  0  0  0  0  0  0  0  0
   10.2056   -0.2391    0.0000 C   0  0  0  0  0  0  0  0  0  0  0  0
    8.4735    1.7609    0.0000 C   0  0  0  0  0  0  0  0  0  0  0  0
    7.0896   -1.6455    0.0000 C   0  0  0  0  0  0  0  0  0  0  0  0
    8.0895   -1.6340    0.0000 C   0  0  0  0  0  0  0  0  0  0  0  0
   10.2056    0.7609    0.0000 C   0  0  0  0  0  0  0  0  0  0  0  0
    9.3235    2.3024    0.0000 C   0  0  0  0  0  0  0  0  0  0  0  0
   11.1156    1.2677    0.0000 C   0  0  0  0  0  0  0  0  0  0  0  0
   11.1236    2.3093    0.0000 C   0  0  0  0  0  0  0  0  0  0  0  0
   10.2215    2.8301    0.0000 C   0  0  0  0  0  0  0  0  0  0  0  0
   11.9915    2.8060    0.0000 C   0  0  0  0  0  0  0  0  0  0  0  0
    5.5997   -2.5288    0.0000 C   0  0  0  0  0  0  0  0  0  0  0  0
   11.4949    3.6739    0.0000 C   0  0  0  0  0  0  0  0  0  0  0  0
   12.4882    1.9380    0.0000 C   0  0  0  0  0  0  0  0  0  0  0  0
    4.5998   -2.5404    0.0000 C   0  0  0  0  0  0  0  0  0  0  0  0
    4.1098   -3.4122    0.0000 C   0  0  0  0  0  0  0  0  0  0  0  0
   12.8633    4.3026    0.0000 C   0  0  0  0  0  0  0  0  0  0  0  0
    3.1099   -3.4237    0.0000 C   0  0  0  0  0  0  0  0  0  0  0  0
    8.4801   -1.0891    0.0000 H   0  0  0  0  0  0  0  0  0  0  0  0
    7.9842    1.7653    0.0000 H   0  0  0  0  0  0  0  0  0  0  0  0
    7.1859    1.7746    0.0000 H   0  0  0  0  0  0  0  0  0  0  0  0
    6.0626   -0.1538    0.0000 H   0  0  0  0  0  0  0  0  0  0  0  0
    6.4644   -0.8436    0.0000 H   0  0  0  0  0  0  0  0  0  0  0  0
    8.9410   -1.2141    0.0000 H   0  0  0  0  0  0  0  0  0  0  0  0
    9.7381   -1.2141    0.0000 H   0  0  0  0  0  0  0  0  0  0  0  0
    6.4644    1.3654    0.0000 H   0  0  0  0  0  0  0  0  0  0  0  0
    6.0626    0.6756    0.0000 H   0  0  0  0  0  0  0  0  0  0  0  0
   10.4176   -0.8217    0.0000 H   0  0  0  0  0  0  0  0  0  0  0  0
   10.8161   -0.1315    0.0000 H   0  0  0  0  0  0  0  0  0  0  0  0
    9.0935    1.7609    0.0000 H   0  0  0  0  0  0  0  0  0  0  0  0
    8.4735    2.3809    0.0000 H   0  0  0  0  0  0  0  0  0  0  0  0
    7.8535    1.7609    0.0000 H   0  0  0  0  0  0  0  0  0  0  0  0
    6.9890   -2.2573    0.0000 H   0  0  0  0  0  0  0  0  0  0  0  0
    7.6746   -1.8508    0.0000 H   0  0  0  0  0  0  0  0  0  0  0  0
    7.5562   -1.9502    0.0000 H   0  0  0  0  0  0  0  0  0  0  0  0
    8.4057   -2.1673    0.0000 H   0  0  0  0  0  0  0  0  0  0  0  0
    8.6229   -1.3178    0.0000 H   0  0  0  0  0  0  0  0  0  0  0  0
    8.7830    2.6062    0.0000 H   0  0  0  0  0  0  0  0  0  0  0  0
   11.6489    0.9515    0.0000 H   0  0  0  0  0  0  0  0  0  0  0  0
   10.2191    3.4501    0.0000 H   0  0  0  0  0  0  0  0  0  0  0  0
   12.0330    3.9819    0.0000 H   0  0  0  0  0  0  0  0  0  0  0  0
   11.1870    4.2121    0.0000 H   0  0  0  0  0  0  0  0  0  0  0  0
   10.9568    3.3660    0.0000 H   0  0  0  0  0  0  0  0  0  0  0  0
   11.9501    1.6301    0.0000 H   0  0  0  0  0  0  0  0  0  0  0  0
   12.7961    1.3999    0.0000 H   0  0  0  0  0  0  0  0  0  0  0  0
   13.0263    2.2460    0.0000 H   0  0  0  0  0  0  0  0  0  0  0  0
    4.7004   -1.9286    0.0000 H   0  0  0  0  0  0  0  0  0  0  0  0
    4.0148   -2.3351    0.0000 H   0  0  0  0  0  0  0  0  0  0  0  0
    4.0092   -4.0239    0.0000 H   0  0  0  0  0  0  0  0  0  0  0  0
    4.6949   -3.6175    0.0000 H   0  0  0  0  0  0  0  0  0  0  0  0
   13.4833    4.3002    0.0000 H   0  0  0  0  0  0  0  0  0  0  0  0
   12.8657    4.9226    0.0000 H   0  0  0  0  0  0  0  0  0  0  0  0
   12.2433    4.3050    0.0000 H   0  0  0  0  0  0  0  0  0  0  0  0
    2.0000   -4.3026    0.0000 H   0  0  0  0  0  0  0  0  0  0  0  0
  1 16  1  0  0  0  0
  1 24  1  0  0  0  0
  2 23  1  0  0  0  0
  2 29  1  0  0  0  0
  3 24  2  0  0  0  0
  4 30  1  0  0  0  0
  4 66  1  0  0  0  0
  5 30  2  0  0  0  0
  6  7  1  0  0  0  0
  6  8  1  0  0  0  0
  6 11  1  0  0  0  0
  6 31  1  6  0  0  0
  7  9  1  0  0  0  0
  7 13  1  0  0  0  0
  7 15  1  1  0  0  0
  8 10  1  0  0  0  0
  8 16  1  0  0  0  0
  8 17  1  1  0  0  0
  9 12  1  0  0  0  0
  9 32  1  0  0  0  0
  9 33  1  0  0  0  0
 10 12  1  0  0  0  0
 10 34  1  0  0  0  0
 10 35  1  0  0  0  0
 11 14  1  0  0  0  0
 11 36  1  0  0  0  0
 11 37  1  0  0  0  0
 12 38  1  0  0  0  0
 12 39  1  0  0  0  0
 13 18  2  0  0  0  0
 13 19  1  0  0  0  0
 14 18  1  0  0  0  0
 14 40  1  0  0  0  0
 14 41  1  0  0  0  0
 15 42  1  0  0  0  0
 15 43  1  0  0  0  0
 15 44  1  0  0  0  0
 16 45  1  0  0  0  0
 16 46  1  0  0  0  0
 17 47  1  0  0  0  0
 17 48  1  0  0  0  0
 17 49  1  0  0  0  0
 18 20  1  0  0  0  0
 19 22  2  0  0  0  0
 19 50  1  0  0  0  0
 20 21  2  0  0  0  0
 20 51  1  0  0  0  0
 21 22  1  0  0  0  0
 21 23  1  0  0  0  0
 22 52  1  0  0  0  0
 23 25  1  0  0  0  0
 23 26  1  0  0  0  0
 24 27  1  0  0  0  0
 25 53  1  0  0  0  0
 25 54  1  0  0  0  0
 25 55  1  0  0  0  0
 26 56  1  0  0  0  0
 26 57  1  0  0  0  0
 26 58  1  0  0  0  0
 27 28  1  0  0  0  0
 27 59  1  0  0  0  0
 27 60  1  0  0  0  0
 28 30  1  0  0  0  0
 28 61  1  0  0  0  0
 28 62  1  0  0  0  0
 29 63  1  0  0  0  0
 29 64  1  0  0  0  0
 29 65  1  0  0  0  0
M  END
> <PUBCHEM_COMPOUND_CID>
46230077

> <PUBCHEM_COMPOUND_CANONICALIZED>
1

> <PUBCHEM_CACTVS_COMPLEXITY>
644

> <PUBCHEM_CACTVS_HBOND_ACCEPTOR>
5

> <PUBCHEM_CACTVS_HBOND_DONOR>
1

> <PUBCHEM_CACTVS_ROTATABLE_BOND>
8

> <PUBCHEM_CACTVS_SUBSKEYS>
AAADcfB4OAAAAAAAAAAAAAAAAAAAAAAAAAAwYMAAAAAAAADBAAAAGgAACAAAD0SgmAIyCIAABgCIAiDSCAACAAAgAAAIiAEACIgIJjKAMRiCcAAkwAEIqAfDwPAPwAACAAAQAACAAAQAACAAAAAAAAAAAA==

> <PUBCHEM_IUPAC_OPENEYE_NAME>
4-[[(1R,4aS,10aR)-7-(1-methoxy-1-methyl-ethyl)-1,4a-dimethyl-2,3,4,9,10,10a-hexahydrophenanthren-1-yl]methoxy]-4-oxo-butanoic acid

> <PUBCHEM_IUPAC_CAS_NAME>
4-[[(1R,4aS,10aR)-7-(2-methoxypropan-2-yl)-1,4a-dimethyl-2,3,4,9,10,10a-hexahydrophenanthren-1-yl]methoxy]-4-oxobutanoic acid

> <PUBCHEM_IUPAC_NAME_MARKUP>
4-[[(1<I>R</I>,4<I>a</I><I>S</I>,10<I>a</I><I>R</I>)-7-(2-methoxypropan-2-yl)-1,4<I>a</I>-dimethyl-2,3,4,9,10,10<I>a</I>-hexahydrophenanthren-1-yl]methoxy]-4-oxobutanoic acid

> <PUBCHEM_IUPAC_NAME>
4-[[(1R,4aS,10aR)-7-(2-methoxypropan-2-yl)-1,4a-dimethyl-2,3,4,9,10,10a-hexahydrophenanthren-1-yl]methoxy]-4-oxobutanoic acid

> <PUBCHEM_IUPAC_SYSTEMATIC_NAME>
4-[[(1R,4aS,10aR)-7-(2-methoxypropan-2-yl)-1,4a-dimethyl-2,3,4,9,10,10a-hexahydrophenanthren-1-yl]methoxy]-4-oxidanylidene-butanoic acid

> <PUBCHEM_IUPAC_TRADITIONAL_NAME>
4-[[(1R,4aS,10aR)-7-(1-methoxy-1-methyl-ethyl)-1,4a-dimethyl-2,3,4,9,10,10a-hexahydrophenanthren-1-yl]methoxy]-4-keto-butyric acid

> <PUBCHEM_IUPAC_INCHI>
InChI=1S/C25H36O5/c1-23(2,29-5)18-8-9-19-17(15-18)7-10-20-24(3,13-6-14-25(19,20)4)16-30-22(28)12-11-21(26)27/h8-9,15,20H,6-7,10-14,16H2,1-5H3,(H,26,27)/t20-,24-,25+/m0/s1

> <PUBCHEM_IUPAC_INCHIKEY>
OSBRSVNOFXCOHR-KSNOWIBYSA-N

> <PUBCHEM_XLOGP3_AA>
4.8

> <PUBCHEM_EXACT_MASS>
416.25627424

> <PUBCHEM_MOLECULAR_FORMULA>
C25H36O5

> <PUBCHEM_MOLECULAR_WEIGHT>
416.5

> <PUBCHEM_OPENEYE_CAN_SMILES>
CC1(CCCC2(C1CCC3=C2C=CC(=C3)C(C)(C)OC)C)COC(=O)CCC(=O)O

> <PUBCHEM_OPENEYE_ISO_SMILES>
C[C@]1(CCC[C@]2([C@H]1CCC3=C2C=CC(=C3)C(C)(C)OC)C)COC(=O)CCC(=O)O

> <PUBCHEM_CACTVS_TPSA>
72.8

> <PUBCHEM_MONOISOTOPIC_WEIGHT>
416.25627424

> <PUBCHEM_TOTAL_CHARGE>
0

> <PUBCHEM_HEAVY_ATOM_COUNT>
30

> <PUBCHEM_ATOM_DEF_STEREO_COUNT>
3

> <PUBCHEM_ATOM_UDEF_STEREO_COUNT>
0

> <PUBCHEM_BOND_DEF_STEREO_COUNT>
0

> <PUBCHEM_BOND_UDEF_STEREO_COUNT>
0

> <PUBCHEM_ISOTOPIC_ATOM_COUNT>
0

> <PUBCHEM_COMPONENT_COUNT>
1

> <PUBCHEM_CACTVS_TAUTO_COUNT>
-1

> <PUBCHEM_COORDINATE_TYPE>
1
5
255

> <PUBCHEM_BONDANNOTATIONS>
13  18  8
13  19  8
18  20  8
19  22  8
20  21  8
21  22  8
6  31  6
7  15  5
8  17  5

$$$$
