44566201
  -OEChem-05162310032D

 54 56  0     1  0  0  0  0  0999 V2000
    2.6200   -3.2222    0.0000 O   0  0  0  0  0  0  0  0  0  0  0  0
    2.5999   -1.4902    0.0000 O   0  0  0  0  0  0  0  0  0  0  0  0
    9.8797    2.6093    0.0000 O   0  0  0  0  0  0  0  0  0  0  0  0
    5.4937   -0.9324    0.0000 C   0  0  2  0  0  0  0  0  0  0  0  0
    5.4937    0.0676    0.0000 C   0  0  2  0  0  0  0  0  0  0  0  0
    4.5998   -1.4671    0.0000 C   0  0  1  0  0  0  0  0  0  0  0  0
    4.5998    0.6022    0.0000 C   0  0  0  0  0  0  0  0  0  0  0  0
    3.6937   -0.9532    0.0000 C   0  0  0  0  0  0  0  0  0  0  0  0
    6.3598   -1.4324    0.0000 C   0  0  0  0  0  0  0  0  0  0  0  0
    3.6937    0.0884    0.0000 C   0  0  0  0  0  0  0  0  0  0  0  0
    6.3598    0.5676    0.0000 C   0  0  0  0  0  0  0  0  0  0  0  0
    4.1098   -2.3388    0.0000 C   0  0  0  0  0  0  0  0  0  0  0  0
    7.2258   -0.9324    0.0000 C   0  0  0  0  0  0  0  0  0  0  0  0
    5.4937    1.0676    0.0000 C   0  0  0  0  0  0  0  0  0  0  0  0
    5.1098   -2.3273    0.0000 C   0  0  0  0  0  0  0  0  0  0  0  0
    7.2258    0.0676    0.0000 C   0  0  0  0  0  0  0  0  0  0  0  0
    6.3437    1.6091    0.0000 C   0  0  0  0  0  0  0  0  0  0  0  0
    8.1358    0.5744    0.0000 C   0  0  0  0  0  0  0  0  0  0  0  0
    3.1099   -2.3504    0.0000 C   0  0  0  0  0  0  0  0  0  0  0  0
    8.1438    1.6160    0.0000 C   0  0  0  0  0  0  0  0  0  0  0  0
    7.2417    2.1368    0.0000 C   0  0  0  0  0  0  0  0  0  0  0  0
    9.0118    2.1127    0.0000 C   0  0  0  0  0  0  0  0  0  0  0  0
    8.5151    2.9806    0.0000 C   0  0  0  0  0  0  0  0  0  0  0  0
    9.5084    1.2447    0.0000 C   0  0  0  0  0  0  0  0  0  0  0  0
    5.5003   -1.7824    0.0000 H   0  0  0  0  0  0  0  0  0  0  0  0
    5.0044    1.0720    0.0000 H   0  0  0  0  0  0  0  0  0  0  0  0
    4.2062    1.0812    0.0000 H   0  0  0  0  0  0  0  0  0  0  0  0
    3.0829   -0.8472    0.0000 H   0  0  0  0  0  0  0  0  0  0  0  0
    3.4847   -1.5369    0.0000 H   0  0  0  0  0  0  0  0  0  0  0  0
    5.9612   -1.9074    0.0000 H   0  0  0  0  0  0  0  0  0  0  0  0
    6.7583   -1.9074    0.0000 H   0  0  0  0  0  0  0  0  0  0  0  0
    3.4847    0.6721    0.0000 H   0  0  0  0  0  0  0  0  0  0  0  0
    3.0829   -0.0177    0.0000 H   0  0  0  0  0  0  0  0  0  0  0  0
    4.0092   -2.9506    0.0000 H   0  0  0  0  0  0  0  0  0  0  0  0
    4.6949   -2.5441    0.0000 H   0  0  0  0  0  0  0  0  0  0  0  0
    7.4378   -1.5150    0.0000 H   0  0  0  0  0  0  0  0  0  0  0  0
    7.8364   -0.8248    0.0000 H   0  0  0  0  0  0  0  0  0  0  0  0
    6.1137    1.0676    0.0000 H   0  0  0  0  0  0  0  0  0  0  0  0
    5.4937    1.6876    0.0000 H   0  0  0  0  0  0  0  0  0  0  0  0
    4.8737    1.0676    0.0000 H   0  0  0  0  0  0  0  0  0  0  0  0
    4.5765   -2.6435    0.0000 H   0  0  0  0  0  0  0  0  0  0  0  0
    5.4260   -2.8606    0.0000 H   0  0  0  0  0  0  0  0  0  0  0  0
    5.6431   -2.0111    0.0000 H   0  0  0  0  0  0  0  0  0  0  0  0
    5.8032    1.9128    0.0000 H   0  0  0  0  0  0  0  0  0  0  0  0
    8.6691    0.2582    0.0000 H   0  0  0  0  0  0  0  0  0  0  0  0
    7.2394    2.7568    0.0000 H   0  0  0  0  0  0  0  0  0  0  0  0
    2.0000   -3.2293    0.0000 H   0  0  0  0  0  0  0  0  0  0  0  0
    9.0532    3.2886    0.0000 H   0  0  0  0  0  0  0  0  0  0  0  0
    8.2072    3.5187    0.0000 H   0  0  0  0  0  0  0  0  0  0  0  0
    7.9770    2.6727    0.0000 H   0  0  0  0  0  0  0  0  0  0  0  0
    8.9703    0.9368    0.0000 H   0  0  0  0  0  0  0  0  0  0  0  0
    9.8164    0.7066    0.0000 H   0  0  0  0  0  0  0  0  0  0  0  0
   10.0466    1.5526    0.0000 H   0  0  0  0  0  0  0  0  0  0  0  0
    9.8821    3.2293    0.0000 H   0  0  0  0  0  0  0  0  0  0  0  0
  1 19  1  0  0  0  0
  1 47  1  0  0  0  0
  2 19  2  0  0  0  0
  3 22  1  0  0  0  0
  3 54  1  0  0  0  0
  4  5  1  0  0  0  0
  4  6  1  0  0  0  0
  4  9  1  0  0  0  0
  4 25  1  6  0  0  0
  5  7  1  0  0  0  0
  5 11  1  0  0  0  0
  5 14  1  1  0  0  0
  6  8  1  0  0  0  0
  6 12  1  0  0  0  0
  6 15  1  1  0  0  0
  7 10  1  0  0  0  0
  7 26  1  0  0  0  0
  7 27  1  0  0  0  0
  8 10  1  0  0  0  0
  8 28  1  0  0  0  0
  8 29  1  0  0  0  0
  9 13  1  0  0  0  0
  9 30  1  0  0  0  0
  9 31  1  0  0  0  0
 10 32  1  0  0  0  0
 10 33  1  0  0  0  0
 11 16  2  0  0  0  0
 11 17  1  0  0  0  0
 12 19  1  0  0  0  0
 12 34  1  0  0  0  0
 12 35  1  0  0  0  0
 13 16  1  0  0  0  0
 13 36  1  0  0  0  0
 13 37  1  0  0  0  0
 14 38  1  0  0  0  0
 14 39  1  0  0  0  0
 14 40  1  0  0  0  0
 15 41  1  0  0  0  0
 15 42  1  0  0  0  0
 15 43  1  0  0  0  0
 16 18  1  0  0  0  0
 17 21  2  0  0  0  0
 17 44  1  0  0  0  0
 18 20  2  0  0  0  0
 18 45  1  0  0  0  0
 20 21  1  0  0  0  0
 20 22  1  0  0  0  0
 21 46  1  0  0  0  0
 22 23  1  0  0  0  0
 22 24  1  0  0  0  0
 23 48  1  0  0  0  0
 23 49  1  0  0  0  0
 23 50  1  0  0  0  0
 24 51  1  0  0  0  0
 24 52  1  0  0  0  0
 24 53  1  0  0  0  0
M  END
> <PUBCHEM_COMPOUND_CID>
44566201

> <PUBCHEM_COMPOUND_CANONICALIZED>
1

> <PUBCHEM_CACTVS_COMPLEXITY>
499

> <PUBCHEM_CACTVS_HBOND_ACCEPTOR>
3

> <PUBCHEM_CACTVS_HBOND_DONOR>
2

> <PUBCHEM_CACTVS_ROTATABLE_BOND>
3

> <PUBCHEM_CACTVS_SUBSKEYS>
AAADceB4MAAAAAAAAAAAAAAAAAAAAAAAAAAwYMAAAAAAAADBAAAAGgAACAAAD0SAmAAyCIAAAgCIAiDSCAACAAAgAAAIiAEACIgIJjKAERCAcAAkwAEImAeIyPCPwAACAAAQAACAAAQAACAAAAAAAAAAAA==

> <PUBCHEM_IUPAC_OPENEYE_NAME>
2-[(1S,4aS,10aS)-7-(1-hydroxy-1-methyl-ethyl)-1,4a-dimethyl-2,3,4,9,10,10a-hexahydrophenanthren-1-yl]acetic acid

> <PUBCHEM_IUPAC_CAS_NAME>
2-[(1S,4aS,10aS)-7-(2-hydroxypropan-2-yl)-1,4a-dimethyl-2,3,4,9,10,10a-hexahydrophenanthren-1-yl]acetic acid

> <PUBCHEM_IUPAC_NAME_MARKUP>
2-[(1<I>S</I>,4<I>a</I><I>S</I>,10<I>a</I><I>S</I>)-7-(2-hydroxypropan-2-yl)-1,4<I>a</I>-dimethyl-2,3,4,9,10,10<I>a</I>-hexahydrophenanthren-1-yl]acetic acid

> <PUBCHEM_IUPAC_NAME>
2-[(1S,4aS,10aS)-7-(2-hydroxypropan-2-yl)-1,4a-dimethyl-2,3,4,9,10,10a-hexahydrophenanthren-1-yl]acetic acid

> <PUBCHEM_IUPAC_SYSTEMATIC_NAME>
2-[(1S,4aS,10aS)-1,4a-dimethyl-7-(2-oxidanylpropan-2-yl)-2,3,4,9,10,10a-hexahydrophenanthren-1-yl]ethanoic acid

> <PUBCHEM_IUPAC_TRADITIONAL_NAME>
2-[(1S,4aS,10aS)-7-(1-hydroxy-1-methyl-ethyl)-1,4a-dimethyl-2,3,4,9,10,10a-hexahydrophenanthren-1-yl]acetic acid

> <PUBCHEM_IUPAC_INCHI>
InChI=1S/C21H30O3/c1-19(2,24)15-7-8-16-14(12-15)6-9-17-20(3,13-18(22)23)10-5-11-21(16,17)4/h7-8,12,17,24H,5-6,9-11,13H2,1-4H3,(H,22,23)/t17-,20-,21+/m0/s1

> <PUBCHEM_IUPAC_INCHIKEY>
QMTZBWPBIQZLBJ-DZFGPLHGSA-N

> <PUBCHEM_XLOGP3_AA>
4.6

> <PUBCHEM_EXACT_MASS>
330.21949481

> <PUBCHEM_MOLECULAR_FORMULA>
C21H30O3

> <PUBCHEM_MOLECULAR_WEIGHT>
330.5

> <PUBCHEM_OPENEYE_CAN_SMILES>
CC1(CCCC2(C1CCC3=C2C=CC(=C3)C(C)(C)O)C)CC(=O)O

> <PUBCHEM_OPENEYE_ISO_SMILES>
C[C@]1(CCC[C@]2([C@H]1CCC3=C2C=CC(=C3)C(C)(C)O)C)CC(=O)O

> <PUBCHEM_CACTVS_TPSA>
57.5

> <PUBCHEM_MONOISOTOPIC_WEIGHT>
330.21949481

> <PUBCHEM_TOTAL_CHARGE>
0

> <PUBCHEM_HEAVY_ATOM_COUNT>
24

> <PUBCHEM_ATOM_DEF_STEREO_COUNT>
3

> <PUBCHEM_ATOM_UDEF_STEREO_COUNT>
0

> <PUBCHEM_BOND_DEF_STEREO_COUNT>
0

> <PUBCHEM_BOND_UDEF_STEREO_COUNT>
0

> <PUBCHEM_ISOTOPIC_ATOM_COUNT>
0

> <PUBCHEM_COMPONENT_COUNT>
1

> <PUBCHEM_CACTVS_TAUTO_COUNT>
-1

> <PUBCHEM_COORDINATE_TYPE>
1
5
255

> <PUBCHEM_BONDANNOTATIONS>
11  16  8
11  17  8
16  18  8
17  21  8
18  20  8
20  21  8
4  25  6
5  14  5
6  15  5

$$$$
