44605338
  -OEChem-05162309172D

 48 52  0     1  0  0  0  0  0999 V2000
    5.3342    1.5319    0.0000 O   0  0  0  0  0  0  0  0  0  0  0  0
    5.5743   -1.5952    0.0000 O   0  0  0  0  0  0  0  0  0  0  0  0
    2.0000   -1.5952    0.0000 O   0  0  0  0  0  0  0  0  0  0  0  0
    5.5424    2.6480    0.0000 O   0  0  0  0  0  0  0  0  0  0  0  0
    3.7872   -0.7995    0.0000 C   0  0  1  0  0  0  0  0  0  0  0  0
    4.6881   -0.3656    0.0000 C   0  0  2  0  0  0  0  0  0  0  0  0
    4.9107    0.6093    0.0000 C   0  0  1  0  0  0  0  0  0  0  0  0
    2.8862   -0.3656    0.0000 C   0  0  2  0  0  0  0  0  0  0  0  0
    4.5962   -1.3873    0.0000 C   0  0  1  0  0  0  0  0  0  0  0  0
    4.2872   -2.3384    0.0000 C   0  0  1  0  0  0  0  0  0  0  0  0
    5.4260   -1.0346    0.0000 C   0  0  0  0  0  0  0  0  0  0  0  0
    2.6637    0.6093    0.0000 C   0  0  0  0  0  0  0  0  0  0  0  0
    5.2276   -2.0106    0.0000 C   0  0  0  0  0  0  0  0  0  0  0  0
    2.9782   -1.3873    0.0000 C   0  0  0  0  0  0  0  0  0  0  0  0
    4.2872    1.3911    0.0000 C   0  0  0  0  0  0  0  0  0  0  0  0
    3.2872    1.3911    0.0000 C   0  0  0  0  0  0  0  0  0  0  0  0
    3.2872   -2.3384    0.0000 C   0  0  0  0  0  0  0  0  0  0  0  0
    2.9824    2.3373    0.0000 C   0  0  0  0  0  0  0  0  0  0  0  0
    5.8662    0.9040    0.0000 C   0  0  0  0  0  0  0  0  0  0  0  0
    4.5919    2.3373    0.0000 C   0  0  0  0  0  0  0  0  0  0  0  0
    3.7872    2.9210    0.0000 C   0  0  0  0  0  0  0  0  0  0  0  0
    2.3960    3.1474    0.0000 C   0  0  0  0  0  0  0  0  0  0  0  0
    2.0308    2.0300    0.0000 C   0  0  0  0  0  0  0  0  0  0  0  0
    2.6994   -3.1474    0.0000 C   0  0  0  0  0  0  0  0  0  0  0  0
    5.4989   -0.1104    0.0000 H   0  0  0  0  0  0  0  0  0  0  0  0
    2.0457   -0.4923    0.0000 H   0  0  0  0  0  0  0  0  0  0  0  0
    4.8484   -0.8209    0.0000 H   0  0  0  0  0  0  0  0  0  0  0  0
    4.0245   -3.1468    0.0000 H   0  0  0  0  0  0  0  0  0  0  0  0
    6.0020   -1.2640    0.0000 H   0  0  0  0  0  0  0  0  0  0  0  0
    5.7542   -0.5085    0.0000 H   0  0  0  0  0  0  0  0  0  0  0  0
    2.2771    1.0940    0.0000 H   0  0  0  0  0  0  0  0  0  0  0  0
    2.1051    0.3403    0.0000 H   0  0  0  0  0  0  0  0  0  0  0  0
    5.3244   -2.6230    0.0000 H   0  0  0  0  0  0  0  0  0  0  0  0
    5.8475   -2.0242    0.0000 H   0  0  0  0  0  0  0  0  0  0  0  0
    6.0490    0.3116    0.0000 H   0  0  0  0  0  0  0  0  0  0  0  0
    6.4587    1.0868    0.0000 H   0  0  0  0  0  0  0  0  0  0  0  0
    5.6835    1.4965    0.0000 H   0  0  0  0  0  0  0  0  0  0  0  0
    4.2019    3.3818    0.0000 H   0  0  0  0  0  0  0  0  0  0  0  0
    3.3724    3.3818    0.0000 H   0  0  0  0  0  0  0  0  0  0  0  0
    6.0351   -2.0101    0.0000 H   0  0  0  0  0  0  0  0  0  0  0  0
    2.8983    3.5109    0.0000 H   0  0  0  0  0  0  0  0  0  0  0  0
    2.0325    3.6496    0.0000 H   0  0  0  0  0  0  0  0  0  0  0  0
    1.8938    2.7838    0.0000 H   0  0  0  0  0  0  0  0  0  0  0  0
    1.8403    2.6200    0.0000 H   0  0  0  0  0  0  0  0  0  0  0  0
    1.4409    1.8394    0.0000 H   0  0  0  0  0  0  0  0  0  0  0  0
    2.2214    1.4400    0.0000 H   0  0  0  0  0  0  0  0  0  0  0  0
    2.0828   -3.0826    0.0000 H   0  0  0  0  0  0  0  0  0  0  0  0
    2.9516   -3.7138    0.0000 H   0  0  0  0  0  0  0  0  0  0  0  0
  1  7  1  0  0  0  0
  1  8  1  0  0  0  0
  9  2  1  6  0  0  0
  2 40  1  0  0  0  0
  3 14  2  0  0  0  0
  4 20  2  0  0  0  0
  5  6  1  0  0  0  0
  5  8  1  0  0  0  0
  5  9  1  0  0  0  0
  5 14  1  1  0  0  0
  6  7  1  0  0  0  0
  6 11  1  0  0  0  0
  6 25  1  1  0  0  0
  7 15  1  0  0  0  0
  7 19  1  6  0  0  0
  8 12  1  0  0  0  0
  8 26  1  1  0  0  0
  9 10  1  0  0  0  0
  9 27  1  0  0  0  0
 10 13  1  0  0  0  0
 10 17  1  0  0  0  0
 10 28  1  6  0  0  0
 11 13  1  0  0  0  0
 11 29  1  0  0  0  0
 11 30  1  0  0  0  0
 12 16  1  0  0  0  0
 12 31  1  0  0  0  0
 12 32  1  0  0  0  0
 13 33  1  0  0  0  0
 13 34  1  0  0  0  0
 14 17  1  0  0  0  0
 15 16  2  0  0  0  0
 15 20  1  0  0  0  0
 16 18  1  0  0  0  0
 17 24  2  0  0  0  0
 18 21  1  0  0  0  0
 18 22  1  0  0  0  0
 18 23  1  0  0  0  0
 19 35  1  0  0  0  0
 19 36  1  0  0  0  0
 19 37  1  0  0  0  0
 20 21  1  0  0  0  0
 21 38  1  0  0  0  0
 21 39  1  0  0  0  0
 22 41  1  0  0  0  0
 22 42  1  0  0  0  0
 22 43  1  0  0  0  0
 23 44  1  0  0  0  0
 23 45  1  0  0  0  0
 23 46  1  0  0  0  0
 24 47  1  0  0  0  0
 24 48  1  0  0  0  0
M  END
> <PUBCHEM_COMPOUND_CID>
44605338

> <PUBCHEM_COMPOUND_CANONICALIZED>
1

> <PUBCHEM_CACTVS_COMPLEXITY>
760

> <PUBCHEM_CACTVS_HBOND_ACCEPTOR>
4

> <PUBCHEM_CACTVS_HBOND_DONOR>
1

> <PUBCHEM_CACTVS_ROTATABLE_BOND>
0

> <PUBCHEM_CACTVS_SUBSKEYS>
AAADceB4OAAAAAAAAAAAAAAAAAAAAaIEAAAwQAAABggAAEiQAAAAGgAACAAAD1SggAICAAAABgCIAoBSAAAAAAAgAAAACAEAAEgAFBYAIQACUAAF4AAIIYPKyPCPgAAAAAAAAACAAAYAADAAAQAABAAAAA==

> <PUBCHEM_IUPAC_OPENEYE_NAME>
(1S,2S,5S,8R,9S,17R)-17-hydroxy-9,13,13-trimethyl-4-methylene-16-oxapentacyclo[7.6.1.12,5.02,8.010,14]heptadec-10(14)-ene-3,11-dione

> <PUBCHEM_IUPAC_CAS_NAME>
(1S,2S,5S,8R,9S,17R)-17-hydroxy-9,13,13-trimethyl-4-methylene-16-oxapentacyclo[7.6.1.12,5.02,8.010,14]heptadec-10(14)-ene-3,11-dione

> <PUBCHEM_IUPAC_NAME_MARKUP>
(1<I>S</I>,2<I>S</I>,5<I>S</I>,8<I>R</I>,9<I>S</I>,17<I>R</I>)-17-hydroxy-9,13,13-trimethyl-4-methylidene-16-oxapentacyclo[7.6.1.1<SUP>2,5</SUP>.0<SUP>2,8</SUP>.0<SUP>10,14</SUP>]heptadec-10(14)-ene-3,11-dione

> <PUBCHEM_IUPAC_NAME>
(1S,2S,5S,8R,9S,17R)-17-hydroxy-9,13,13-trimethyl-4-methylidene-16-oxapentacyclo[7.6.1.12,5.02,8.010,14]heptadec-10(14)-ene-3,11-dione

> <PUBCHEM_IUPAC_SYSTEMATIC_NAME>
(1S,2S,5S,8R,9S,17R)-9,13,13-trimethyl-4-methylidene-17-oxidanyl-16-oxapentacyclo[7.6.1.12,5.02,8.010,14]heptadec-10(14)-ene-3,11-dione

> <PUBCHEM_IUPAC_TRADITIONAL_NAME>
(1S,2S,5S,8R,9S,17R)-17-hydroxy-9,13,13-trimethyl-4-methylene-16-oxapentacyclo[7.6.1.12,5.02,8.010,14]heptadec-10(14)-ene-3,11-quinone

> <PUBCHEM_IUPAC_INCHI>
InChI=1S/C20H24O4/c1-9-10-5-6-13-19(4)15-11(18(2,3)8-12(15)21)7-14(24-19)20(13,16(9)22)17(10)23/h10,13-14,17,23H,1,5-8H2,2-4H3/t10-,13-,14-,17+,19-,20-/m0/s1

> <PUBCHEM_IUPAC_INCHIKEY>
MJXXHOYVYOQSOU-KTGBWCAVSA-N

> <PUBCHEM_XLOGP3_AA>
0.9

> <PUBCHEM_EXACT_MASS>
328.16745924

> <PUBCHEM_MOLECULAR_FORMULA>
C20H24O4

> <PUBCHEM_MOLECULAR_WEIGHT>
328.4

> <PUBCHEM_OPENEYE_CAN_SMILES>
CC1(CC(=O)C2=C1CC3C45C(C2(O3)C)CCC(C4O)C(=C)C5=O)C

> <PUBCHEM_OPENEYE_ISO_SMILES>
C[C@@]12[C@@H]3CC[C@@H]4[C@H]([C@@]3([C@@H](O1)CC5=C2C(=O)CC5(C)C)C(=O)C4=C)O

> <PUBCHEM_CACTVS_TPSA>
63.6

> <PUBCHEM_MONOISOTOPIC_WEIGHT>
328.16745924

> <PUBCHEM_TOTAL_CHARGE>
0

> <PUBCHEM_HEAVY_ATOM_COUNT>
24

> <PUBCHEM_ATOM_DEF_STEREO_COUNT>
6

> <PUBCHEM_ATOM_UDEF_STEREO_COUNT>
0

> <PUBCHEM_BOND_DEF_STEREO_COUNT>
0

> <PUBCHEM_BOND_UDEF_STEREO_COUNT>
0

> <PUBCHEM_ISOTOPIC_ATOM_COUNT>
0

> <PUBCHEM_COMPONENT_COUNT>
1

> <PUBCHEM_CACTVS_TAUTO_COUNT>
-1

> <PUBCHEM_COORDINATE_TYPE>
1
5
255

> <PUBCHEM_BONDANNOTATIONS>
10  28  6
9  2  6
5  14  5
6  25  5
7  19  6
8  26  5

$$$$
