71717696
  -OEChem-05162309492D

 58 61  0     1  0  0  0  0  0999 V2000
    4.5295    1.5734    0.0000 O   0  0  0  0  0  0  0  0  0  0  0  0
    2.3052   -2.6913    0.0000 O   0  0  0  0  0  0  0  0  0  0  0  0
    9.3435    0.5019    0.0000 O   0  0  0  0  0  0  0  0  0  0  0  0
    5.0318    3.2310    0.0000 O   0  0  0  0  0  0  0  0  0  0  0  0
    4.7330   -0.2161    0.0000 C   0  0  2  0  0  0  0  0  0  0  0  0
    5.6405    0.2953    0.0000 C   0  0  2  0  0  0  0  0  0  0  0  0
    6.5090   -0.2004    0.0000 C   0  0  2  0  0  0  0  0  0  0  0  0
    4.7302   -1.2577    0.0000 C   0  0  2  0  0  0  0  0  0  0  0  0
    6.5302   -1.2418    0.0000 C   0  0  0  0  0  0  0  0  0  0  0  0
    3.7975   -1.8121    0.0000 C   0  0  1  0  0  0  0  0  0  0  0  0
    6.4845    0.9810    0.0000 C   0  0  0  0  0  0  0  0  0  0  0  0
    5.6349   -1.7740    0.0000 C   0  0  0  0  0  0  0  0  0  0  0  0
    5.4865    1.2834    0.0000 C   0  0  1  0  0  0  0  0  0  0  0  0
    3.8034    0.3434    0.0000 C   0  0  0  0  0  0  0  0  0  0  0  0
    7.1606    1.9501    0.0000 C   0  0  1  0  0  0  0  0  0  0  0  0
    6.1630    2.0198    0.0000 C   0  0  0  0  0  0  0  0  0  0  0  0
    7.4380    0.1696    0.0000 C   0  0  0  0  0  0  0  0  0  0  0  0
    2.8552   -1.2743    0.0000 C   0  0  0  0  0  0  0  0  0  0  0  0
    4.3936    0.7245    0.0000 C   0  0  0  0  0  0  0  0  0  0  0  0
    2.8582   -0.1893    0.0000 C   0  0  0  0  0  0  0  0  0  0  0  0
    7.7280    1.1266    0.0000 C   0  0  0  0  0  0  0  0  0  0  0  0
    3.3052   -2.6825    0.0000 C   0  0  0  0  0  0  0  0  0  0  0  0
    4.3052   -2.6736    0.0000 C   0  0  0  0  0  0  0  0  0  0  0  0
    8.7161    1.2806    0.0000 C   0  0  0  0  0  0  0  0  0  0  0  0
    4.3021    2.5472    0.0000 C   0  0  0  0  0  0  0  0  0  0  0  0
    3.3451    2.8372    0.0000 C   0  0  0  0  0  0  0  0  0  0  0  0
    4.9023    0.7166    0.0000 H   0  0  0  0  0  0  0  0  0  0  0  0
    4.7377   -2.1077    0.0000 H   0  0  0  0  0  0  0  0  0  0  0  0
    6.7512   -1.8211    0.0000 H   0  0  0  0  0  0  0  0  0  0  0  0
    7.1388   -1.1232    0.0000 H   0  0  0  0  0  0  0  0  0  0  0  0
    6.1103    1.4753    0.0000 H   0  0  0  0  0  0  0  0  0  0  0  0
    5.8988    0.7775    0.0000 H   0  0  0  0  0  0  0  0  0  0  0  0
    5.2399   -2.2520    0.0000 H   0  0  0  0  0  0  0  0  0  0  0  0
    6.0382   -2.2449    0.0000 H   0  0  0  0  0  0  0  0  0  0  0  0
    5.3231    1.8814    0.0000 H   0  0  0  0  0  0  0  0  0  0  0  0
    4.2093    0.8121    0.0000 H   0  0  0  0  0  0  0  0  0  0  0  0
    3.4111    0.8235    0.0000 H   0  0  0  0  0  0  0  0  0  0  0  0
    7.4071    2.7635    0.0000 H   0  0  0  0  0  0  0  0  0  0  0  0
    6.3428    2.6132    0.0000 H   0  0  0  0  0  0  0  0  0  0  0  0
    5.6246    2.3271    0.0000 H   0  0  0  0  0  0  0  0  0  0  0  0
    7.8946   -0.2498    0.0000 H   0  0  0  0  0  0  0  0  0  0  0  0
    2.2446   -1.1665    0.0000 H   0  0  0  0  0  0  0  0  0  0  0  0
    2.6446   -1.8574    0.0000 H   0  0  0  0  0  0  0  0  0  0  0  0
    4.9768    0.9350    0.0000 H   0  0  0  0  0  0  0  0  0  0  0  0
    4.1831    1.3077    0.0000 H   0  0  0  0  0  0  0  0  0  0  0  0
    3.8104    0.5141    0.0000 H   0  0  0  0  0  0  0  0  0  0  0  0
    2.6507    0.3950    0.0000 H   0  0  0  0  0  0  0  0  0  0  0  0
    2.2470   -0.2937    0.0000 H   0  0  0  0  0  0  0  0  0  0  0  0
    3.2029   -3.2940    0.0000 H   0  0  0  0  0  0  0  0  0  0  0  0
    3.8897   -2.8894    0.0000 H   0  0  0  0  0  0  0  0  0  0  0  0
    3.7710   -2.9884    0.0000 H   0  0  0  0  0  0  0  0  0  0  0  0
    4.6199   -3.2078    0.0000 H   0  0  0  0  0  0  0  0  0  0  0  0
    4.8393   -2.3589    0.0000 H   0  0  0  0  0  0  0  0  0  0  0  0
    8.9397    1.8589    0.0000 H   0  0  0  0  0  0  0  0  0  0  0  0
    2.0000   -3.2310    0.0000 H   0  0  0  0  0  0  0  0  0  0  0  0
    3.5249    3.4305    0.0000 H   0  0  0  0  0  0  0  0  0  0  0  0
    2.7517    3.0170    0.0000 H   0  0  0  0  0  0  0  0  0  0  0  0
    3.1653    2.2438    0.0000 H   0  0  0  0  0  0  0  0  0  0  0  0
 13  1  1  6  0  0  0
  1 25  1  0  0  0  0
  2 22  1  0  0  0  0
  2 55  1  0  0  0  0
  3 24  2  0  0  0  0
  4 25  2  0  0  0  0
  5  6  1  0  0  0  0
  5  8  1  0  0  0  0
  5 14  1  0  0  0  0
  5 19  1  1  0  0  0
  6  7  1  0  0  0  0
  6 13  1  0  0  0  0
  6 27  1  6  0  0  0
  7  9  1  1  0  0  0
  7 11  1  0  0  0  0
  7 17  1  0  0  0  0
  8 10  1  0  0  0  0
  8 12  1  0  0  0  0
  8 28  1  6  0  0  0
  9 12  1  0  0  0  0
  9 29  1  0  0  0  0
  9 30  1  0  0  0  0
 10 18  1  0  0  0  0
 10 22  1  0  0  0  0
 10 23  1  1  0  0  0
 11 15  1  0  0  0  0
 11 31  1  0  0  0  0
 11 32  1  0  0  0  0
 12 33  1  0  0  0  0
 12 34  1  0  0  0  0
 13 16  1  0  0  0  0
 13 35  1  0  0  0  0
 14 20  1  0  0  0  0
 14 36  1  0  0  0  0
 14 37  1  0  0  0  0
 15 16  1  0  0  0  0
 15 21  1  0  0  0  0
 15 38  1  6  0  0  0
 16 39  1  0  0  0  0
 16 40  1  0  0  0  0
 17 21  2  0  0  0  0
 17 41  1  0  0  0  0
 18 20  1  0  0  0  0
 18 42  1  0  0  0  0
 18 43  1  0  0  0  0
 19 44  1  0  0  0  0
 19 45  1  0  0  0  0
 19 46  1  0  0  0  0
 20 47  1  0  0  0  0
 20 48  1  0  0  0  0
 21 24  1  0  0  0  0
 22 49  1  0  0  0  0
 22 50  1  0  0  0  0
 23 51  1  0  0  0  0
 23 52  1  0  0  0  0
 23 53  1  0  0  0  0
 24 54  1  0  0  0  0
 25 26  1  0  0  0  0
 26 56  1  0  0  0  0
 26 57  1  0  0  0  0
 26 58  1  0  0  0  0
M  END
> <PUBCHEM_COMPOUND_CID>
71717696

> <PUBCHEM_COMPOUND_CANONICALIZED>
1

> <PUBCHEM_CACTVS_COMPLEXITY>
655

> <PUBCHEM_CACTVS_HBOND_ACCEPTOR>
4

> <PUBCHEM_CACTVS_HBOND_DONOR>
1

> <PUBCHEM_CACTVS_ROTATABLE_BOND>
4

> <PUBCHEM_CACTVS_SUBSKEYS>
AAADcfB4OAAAAAAAAAAAAAAAAAAAAQAAAAAwYMAABAAAAADAAAAAGgAACAAADxSggAICCAAABgCIAijSiAAAAAAgAAAACAEAAEgAEBIAAQACQAAEgAAIAYOIzPDPgAAAAAAAAACAAAYAADAAAAAAAAAAAA==

> <PUBCHEM_IUPAC_OPENEYE_NAME>
[(1R,4R,5R,9S,10R,11R,13S)-14-formyl-5-(hydroxymethyl)-5,9-dimethyl-11-tetracyclo[11.2.1.01,10.04,9]hexadec-14-enyl] acetate

> <PUBCHEM_IUPAC_CAS_NAME>
acetic acid [(1R,4R,5R,9S,10R,11R,13S)-14-formyl-5-(hydroxymethyl)-5,9-dimethyl-11-tetracyclo[11.2.1.01,10.04,9]hexadec-14-enyl] ester

> <PUBCHEM_IUPAC_NAME_MARKUP>
[(1<I>R</I>,4<I>R</I>,5<I>R</I>,9<I>S</I>,10<I>R</I>,11<I>R</I>,13<I>S</I>)-14-formyl-5-(hydroxymethyl)-5,9-dimethyl-11-tetracyclo[11.2.1.0<SUP>1,10</SUP>.0<SUP>4,9</SUP>]hexadec-14-enyl] acetate

> <PUBCHEM_IUPAC_NAME>
[(1R,4R,5R,9S,10R,11R,13S)-14-formyl-5-(hydroxymethyl)-5,9-dimethyl-11-tetracyclo[11.2.1.01,10.04,9]hexadec-14-enyl] acetate

> <PUBCHEM_IUPAC_SYSTEMATIC_NAME>
[(1R,4R,5R,9S,10R,11R,13S)-5-(hydroxymethyl)-14-methanoyl-5,9-dimethyl-11-tetracyclo[11.2.1.01,10.04,9]hexadec-14-enyl] ethanoate

> <PUBCHEM_IUPAC_TRADITIONAL_NAME>
acetic acid [(1R,4R,5R,9S,10R,11R,13S)-14-formyl-5,9-dimethyl-5-methylol-11-tetracyclo[11.2.1.01,10.04,9]hexadec-14-enyl] ester

> <PUBCHEM_IUPAC_INCHI>
InChI=1S/C22H32O4/c1-14(25)26-17-9-15-10-22(11-16(15)12-23)8-5-18-20(2,13-24)6-4-7-21(18,3)19(17)22/h11-12,15,17-19,24H,4-10,13H2,1-3H3/t15-,17-,18+,19-,20+,21+,22-/m1/s1

> <PUBCHEM_IUPAC_INCHIKEY>
IZEWXSNCLIVJKF-HGMIMVGUSA-N

> <PUBCHEM_XLOGP3_AA>
4

> <PUBCHEM_EXACT_MASS>
360.23005950

> <PUBCHEM_MOLECULAR_FORMULA>
C22H32O4

> <PUBCHEM_MOLECULAR_WEIGHT>
360.5

> <PUBCHEM_OPENEYE_CAN_SMILES>
CC(=O)OC1CC2CC3(C1C4(CCCC(C4CC3)(C)CO)C)C=C2C=O

> <PUBCHEM_OPENEYE_ISO_SMILES>
CC(=O)O[C@@H]1C[C@@H]2C[C@@]3([C@H]1[C@]4(CCC[C@@]([C@@H]4CC3)(C)CO)C)C=C2C=O

> <PUBCHEM_CACTVS_TPSA>
63.6

> <PUBCHEM_MONOISOTOPIC_WEIGHT>
360.23005950

> <PUBCHEM_TOTAL_CHARGE>
0

> <PUBCHEM_HEAVY_ATOM_COUNT>
26

> <PUBCHEM_ATOM_DEF_STEREO_COUNT>
7

> <PUBCHEM_ATOM_UDEF_STEREO_COUNT>
0

> <PUBCHEM_BOND_DEF_STEREO_COUNT>
0

> <PUBCHEM_BOND_UDEF_STEREO_COUNT>
0

> <PUBCHEM_ISOTOPIC_ATOM_COUNT>
0

> <PUBCHEM_COMPONENT_COUNT>
1

> <PUBCHEM_CACTVS_TAUTO_COUNT>
-1

> <PUBCHEM_COORDINATE_TYPE>
1
5
255

> <PUBCHEM_BONDANNOTATIONS>
13  1  6
10  23  5
15  38  6
5  19  5
6  27  6
7  9  5
8  28  6

$$$$
