71578803
  -OEChem-05162309492D

 63 66  0     1  0  0  0  0  0999 V2000
    5.7165    2.1695    0.0000 O   0  0  0  0  0  0  0  0  0  0  0  0
    9.3615    0.0893    0.0000 O   0  0  0  0  0  0  0  0  0  0  0  0
    3.4923   -2.0952    0.0000 O   0  0  0  0  0  0  0  0  0  0  0  0
    6.2188    3.8272    0.0000 O   0  0  0  0  0  0  0  0  0  0  0  0
    3.5076   -3.8272    0.0000 O   0  0  0  0  0  0  0  0  0  0  0  0
    5.9201    0.3801    0.0000 C   0  0  1  0  0  0  0  0  0  0  0  0
    6.8275    0.8915    0.0000 C   0  0  1  0  0  0  0  0  0  0  0  0
    7.6960    0.3958    0.0000 C   0  0  1  0  0  0  0  0  0  0  0  0
    5.9172   -0.6615    0.0000 C   0  0  1  0  0  0  0  0  0  0  0  0
    7.7173   -0.6456    0.0000 C   0  0  0  0  0  0  0  0  0  0  0  0
    4.9846   -1.2159    0.0000 C   0  0  2  0  0  0  0  0  0  0  0  0
    7.6716    1.5772    0.0000 C   0  0  0  0  0  0  0  0  0  0  0  0
    6.8219   -1.1778    0.0000 C   0  0  0  0  0  0  0  0  0  0  0  0
    6.6736    1.8795    0.0000 C   0  0  2  0  0  0  0  0  0  0  0  0
    4.9904    0.9395    0.0000 C   0  0  0  0  0  0  0  0  0  0  0  0
    8.3476    2.5462    0.0000 C   0  0  1  0  0  0  0  0  0  0  0  0
    7.3501    2.6160    0.0000 C   0  0  0  0  0  0  0  0  0  0  0  0
    8.6251    0.7658    0.0000 C   0  0  0  0  0  0  0  0  0  0  0  0
    4.0422   -0.6781    0.0000 C   0  0  0  0  0  0  0  0  0  0  0  0
    5.5806    1.3207    0.0000 C   0  0  0  0  0  0  0  0  0  0  0  0
    4.0452    0.4069    0.0000 C   0  0  0  0  0  0  0  0  0  0  0  0
    8.9151    1.7228    0.0000 C   0  0  0  0  0  0  0  0  0  0  0  0
    4.4922   -2.0863    0.0000 C   0  0  0  0  0  0  0  0  0  0  0  0
    5.4922   -2.0775    0.0000 C   0  0  0  0  0  0  0  0  0  0  0  0
    9.9032    1.8768    0.0000 C   0  0  0  0  0  0  0  0  0  0  0  0
    5.4892    3.1433    0.0000 C   0  0  0  0  0  0  0  0  0  0  0  0
    3.0000   -2.9656    0.0000 C   0  0  0  0  0  0  0  0  0  0  0  0
    4.5321    3.4333    0.0000 C   0  0  0  0  0  0  0  0  0  0  0  0
    2.0000   -2.9744    0.0000 C   0  0  0  0  0  0  0  0  0  0  0  0
    6.0893    1.3128    0.0000 H   0  0  0  0  0  0  0  0  0  0  0  0
    5.9248   -1.5115    0.0000 H   0  0  0  0  0  0  0  0  0  0  0  0
    7.9382   -1.2249    0.0000 H   0  0  0  0  0  0  0  0  0  0  0  0
    8.3259   -0.5271    0.0000 H   0  0  0  0  0  0  0  0  0  0  0  0
    7.2973    2.0715    0.0000 H   0  0  0  0  0  0  0  0  0  0  0  0
    7.0859    1.3737    0.0000 H   0  0  0  0  0  0  0  0  0  0  0  0
    6.4270   -1.6558    0.0000 H   0  0  0  0  0  0  0  0  0  0  0  0
    7.2252   -1.6487    0.0000 H   0  0  0  0  0  0  0  0  0  0  0  0
    6.5101    2.4776    0.0000 H   0  0  0  0  0  0  0  0  0  0  0  0
    5.3963    1.4082    0.0000 H   0  0  0  0  0  0  0  0  0  0  0  0
    4.5981    1.4196    0.0000 H   0  0  0  0  0  0  0  0  0  0  0  0
    8.5941    3.3597    0.0000 H   0  0  0  0  0  0  0  0  0  0  0  0
    7.5299    3.2093    0.0000 H   0  0  0  0  0  0  0  0  0  0  0  0
    6.8116    2.9233    0.0000 H   0  0  0  0  0  0  0  0  0  0  0  0
    3.4317   -0.5704    0.0000 H   0  0  0  0  0  0  0  0  0  0  0  0
    3.8316   -1.2612    0.0000 H   0  0  0  0  0  0  0  0  0  0  0  0
    6.1638    1.5312    0.0000 H   0  0  0  0  0  0  0  0  0  0  0  0
    5.3702    1.9039    0.0000 H   0  0  0  0  0  0  0  0  0  0  0  0
    4.9974    1.1102    0.0000 H   0  0  0  0  0  0  0  0  0  0  0  0
    3.8377    0.9911    0.0000 H   0  0  0  0  0  0  0  0  0  0  0  0
    3.4340    0.3024    0.0000 H   0  0  0  0  0  0  0  0  0  0  0  0
    4.3900   -2.6978    0.0000 H   0  0  0  0  0  0  0  0  0  0  0  0
    5.0767   -2.2932    0.0000 H   0  0  0  0  0  0  0  0  0  0  0  0
    4.9580   -2.3922    0.0000 H   0  0  0  0  0  0  0  0  0  0  0  0
    5.8069   -2.6117    0.0000 H   0  0  0  0  0  0  0  0  0  0  0  0
    6.0264   -1.7628    0.0000 H   0  0  0  0  0  0  0  0  0  0  0  0
   10.2921    1.3940    0.0000 H   0  0  0  0  0  0  0  0  0  0  0  0
   10.1268    2.4550    0.0000 H   0  0  0  0  0  0  0  0  0  0  0  0
    4.7119    4.0267    0.0000 H   0  0  0  0  0  0  0  0  0  0  0  0
    3.9388    3.6131    0.0000 H   0  0  0  0  0  0  0  0  0  0  0  0
    4.3523    2.8400    0.0000 H   0  0  0  0  0  0  0  0  0  0  0  0
    1.9945   -2.3544    0.0000 H   0  0  0  0  0  0  0  0  0  0  0  0
    1.3800   -2.9799    0.0000 H   0  0  0  0  0  0  0  0  0  0  0  0
    2.0055   -3.5944    0.0000 H   0  0  0  0  0  0  0  0  0  0  0  0
 14  1  1  1  0  0  0
  1 26  1  0  0  0  0
  2 18  2  0  0  0  0
  3 23  1  0  0  0  0
  3 27  1  0  0  0  0
  4 26  2  0  0  0  0
  5 27  2  0  0  0  0
  6  7  1  0  0  0  0
  6  9  1  0  0  0  0
  6 15  1  0  0  0  0
  6 20  1  6  0  0  0
  7  8  1  0  0  0  0
  7 14  1  0  0  0  0
  7 30  1  1  0  0  0
  8 10  1  6  0  0  0
  8 12  1  0  0  0  0
  8 18  1  0  0  0  0
  9 11  1  0  0  0  0
  9 13  1  0  0  0  0
  9 31  1  1  0  0  0
 10 13  1  0  0  0  0
 10 32  1  0  0  0  0
 10 33  1  0  0  0  0
 11 19  1  0  0  0  0
 11 23  1  0  0  0  0
 11 24  1  6  0  0  0
 12 16  1  0  0  0  0
 12 34  1  0  0  0  0
 12 35  1  0  0  0  0
 13 36  1  0  0  0  0
 13 37  1  0  0  0  0
 14 17  1  0  0  0  0
 14 38  1  0  0  0  0
 15 21  1  0  0  0  0
 15 39  1  0  0  0  0
 15 40  1  0  0  0  0
 16 17  1  0  0  0  0
 16 22  1  0  0  0  0
 16 41  1  6  0  0  0
 17 42  1  0  0  0  0
 17 43  1  0  0  0  0
 18 22  1  0  0  0  0
 19 21  1  0  0  0  0
 19 44  1  0  0  0  0
 19 45  1  0  0  0  0
 20 46  1  0  0  0  0
 20 47  1  0  0  0  0
 20 48  1  0  0  0  0
 21 49  1  0  0  0  0
 21 50  1  0  0  0  0
 22 25  2  0  0  0  0
 23 51  1  0  0  0  0
 23 52  1  0  0  0  0
 24 53  1  0  0  0  0
 24 54  1  0  0  0  0
 24 55  1  0  0  0  0
 25 56  1  0  0  0  0
 25 57  1  0  0  0  0
 26 28  1  0  0  0  0
 27 29  1  0  0  0  0
 28 58  1  0  0  0  0
 28 59  1  0  0  0  0
 28 60  1  0  0  0  0
 29 61  1  0  0  0  0
 29 62  1  0  0  0  0
 29 63  1  0  0  0  0
M  END
> <PUBCHEM_COMPOUND_CID>
71578803

> <PUBCHEM_COMPOUND_CANONICALIZED>
1

> <PUBCHEM_CACTVS_COMPLEXITY>
771

> <PUBCHEM_CACTVS_HBOND_ACCEPTOR>
5

> <PUBCHEM_CACTVS_HBOND_DONOR>
0

> <PUBCHEM_CACTVS_ROTATABLE_BOND>
5

> <PUBCHEM_CACTVS_SUBSKEYS>
AAADcfB4OAAAAAAAAAAAAAAAAAAAAYAAAAAwYMAABgAAAADAAAAAGgAAAAAADxSggAICCAAABACIAoDSCAAAAAAgAAAAAAEAAEgAABIAAQACAAAEgAAAAIGKzPDPgAAAAAAAAACAAAYAADAAAQAAAAAAAA==

> <PUBCHEM_IUPAC_OPENEYE_NAME>
[(1R,4S,5S,9R,10S,11S,13S)-11-acetoxy-5,9-dimethyl-14-methylene-15-oxo-5-tetracyclo[11.2.1.01,10.04,9]hexadecanyl]methyl acetate

> <PUBCHEM_IUPAC_CAS_NAME>
acetic acid [(1R,4S,5S,9R,10S,11S,13S)-11-acetyloxy-5,9-dimethyl-14-methylene-15-oxo-5-tetracyclo[11.2.1.01,10.04,9]hexadecanyl]methyl ester

> <PUBCHEM_IUPAC_NAME_MARKUP>
[(1<I>R</I>,4<I>S</I>,5<I>S</I>,9<I>R</I>,10<I>S</I>,11<I>S</I>,13<I>S</I>)-11-acetyloxy-5,9-dimethyl-14-methylidene-15-oxo-5-tetracyclo[11.2.1.0<SUP>1,10</SUP>.0<SUP>4,9</SUP>]hexadecanyl]methyl acetate

> <PUBCHEM_IUPAC_NAME>
[(1R,4S,5S,9R,10S,11S,13S)-11-acetyloxy-5,9-dimethyl-14-methylidene-15-oxo-5-tetracyclo[11.2.1.01,10.04,9]hexadecanyl]methyl acetate

> <PUBCHEM_IUPAC_SYSTEMATIC_NAME>
[(1R,4S,5S,9R,10S,11S,13S)-11-acetyloxy-5,9-dimethyl-14-methylidene-15-oxidanylidene-5-tetracyclo[11.2.1.01,10.04,9]hexadecanyl]methyl ethanoate

> <PUBCHEM_IUPAC_TRADITIONAL_NAME>
acetic acid [(1R,4S,5S,9R,10S,11S,13S)-11-acetoxy-15-keto-5,9-dimethyl-14-methylene-5-tetracyclo[11.2.1.01,10.04,9]hexadecanyl]methyl ester

> <PUBCHEM_IUPAC_INCHI>
InChI=1S/C24H34O5/c1-14-17-11-18(29-16(3)26)20-23(5)9-6-8-22(4,13-28-15(2)25)19(23)7-10-24(20,12-17)21(14)27/h17-20H,1,6-13H2,2-5H3/t17-,18+,19-,20+,22-,23-,24-/m1/s1

> <PUBCHEM_IUPAC_INCHIKEY>
TZJWRWWJZFZJNC-UEMXEBGWSA-N

> <PUBCHEM_XLOGP3_AA>
4.3

> <PUBCHEM_EXACT_MASS>
402.24062418

> <PUBCHEM_MOLECULAR_FORMULA>
C24H34O5

> <PUBCHEM_MOLECULAR_WEIGHT>
402.5

> <PUBCHEM_OPENEYE_CAN_SMILES>
CC(=O)OCC1(CCCC2(C1CCC34C2C(CC(C3)C(=C)C4=O)OC(=O)C)C)C

> <PUBCHEM_OPENEYE_ISO_SMILES>
CC(=O)OC[C@]1(CCC[C@@]2([C@@H]1CC[C@]34[C@H]2[C@H](C[C@H](C3)C(=C)C4=O)OC(=O)C)C)C

> <PUBCHEM_CACTVS_TPSA>
69.7

> <PUBCHEM_MONOISOTOPIC_WEIGHT>
402.24062418

> <PUBCHEM_TOTAL_CHARGE>
0

> <PUBCHEM_HEAVY_ATOM_COUNT>
29

> <PUBCHEM_ATOM_DEF_STEREO_COUNT>
7

> <PUBCHEM_ATOM_UDEF_STEREO_COUNT>
0

> <PUBCHEM_BOND_DEF_STEREO_COUNT>
0

> <PUBCHEM_BOND_UDEF_STEREO_COUNT>
0

> <PUBCHEM_ISOTOPIC_ATOM_COUNT>
0

> <PUBCHEM_COMPONENT_COUNT>
1

> <PUBCHEM_CACTVS_TAUTO_COUNT>
-1

> <PUBCHEM_COORDINATE_TYPE>
1
5
255

> <PUBCHEM_BONDANNOTATIONS>
14  1  5
11  24  6
16  41  6
6  20  6
7  30  5
8  10  6
9  31  5

$$$$
