10356404
  -OEChem-05162308222D

 35 38  0     1  0  0  0  0  0999 V2000
    3.5836   -2.3256    0.0000 O   0  0  0  0  0  0  0  0  0  0  0  0
    7.1719   -0.5140    0.0000 O   0  0  0  0  0  0  0  0  0  0  0  0
    4.5080    1.0106    0.0000 O   0  0  0  0  0  0  0  0  0  0  0  0
    2.0000   -1.5209    0.0000 O   0  0  0  0  0  0  0  0  0  0  0  0
    4.5298   -1.0209    0.0000 C   0  0  1  0  0  0  0  0  0  0  0  0
    4.5298   -2.0209    0.0000 C   0  0  2  0  0  0  0  0  0  0  0  0
    5.3958   -0.5209    0.0000 C   0  0  0  0  0  0  0  0  0  0  0  0
    3.5836   -0.7161    0.0000 C   0  0  0  0  0  0  0  0  0  0  0  0
    6.2619   -1.0209    0.0000 C   0  0  0  0  0  0  0  0  0  0  0  0
    7.1799    0.5276    0.0000 C   0  0  2  0  0  0  0  0  0  0  0  0
    5.3798    0.5206    0.0000 C   0  0  0  0  0  0  0  0  0  0  0  0
    6.2778    1.0484    0.0000 C   0  0  0  0  0  0  0  0  0  0  0  0
    5.3958   -2.5209    0.0000 C   0  0  0  0  0  0  0  0  0  0  0  0
    3.0000   -1.5209    0.0000 C   0  0  0  0  0  0  0  0  0  0  0  0
    6.2619   -2.0209    0.0000 C   0  0  0  0  0  0  0  0  0  0  0  0
    8.0479    1.0242    0.0000 C   0  0  0  0  0  0  0  0  0  0  0  0
    8.9119    0.5209    0.0000 C   0  0  0  0  0  0  0  0  0  0  0  0
    8.0517    2.0242    0.0000 C   0  0  0  0  0  0  0  0  0  0  0  0
    9.7799    1.0176    0.0000 C   0  0  0  0  0  0  0  0  0  0  0  0
    8.9197    2.5209    0.0000 C   0  0  0  0  0  0  0  0  0  0  0  0
    9.7838    2.0175    0.0000 C   0  0  0  0  0  0  0  0  0  0  0  0
    4.4399   -0.1756    0.0000 H   0  0  0  0  0  0  0  0  0  0  0  0
    4.4399   -2.8661    0.0000 H   0  0  0  0  0  0  0  0  0  0  0  0
    3.8346   -0.1492    0.0000 H   0  0  0  0  0  0  0  0  0  0  0  0
    3.0462   -0.4069    0.0000 H   0  0  0  0  0  0  0  0  0  0  0  0
    7.1811    1.1476    0.0000 H   0  0  0  0  0  0  0  0  0  0  0  0
    6.6751    1.5244    0.0000 H   0  0  0  0  0  0  0  0  0  0  0  0
    5.8769    1.5213    0.0000 H   0  0  0  0  0  0  0  0  0  0  0  0
    5.3958   -3.1409    0.0000 H   0  0  0  0  0  0  0  0  0  0  0  0
    6.7988   -2.3309    0.0000 H   0  0  0  0  0  0  0  0  0  0  0  0
    8.9096   -0.0991    0.0000 H   0  0  0  0  0  0  0  0  0  0  0  0
    7.5160    2.3363    0.0000 H   0  0  0  0  0  0  0  0  0  0  0  0
   10.3156    0.7055    0.0000 H   0  0  0  0  0  0  0  0  0  0  0  0
    8.9220    3.1409    0.0000 H   0  0  0  0  0  0  0  0  0  0  0  0
   10.3219    2.3255    0.0000 H   0  0  0  0  0  0  0  0  0  0  0  0
  1  6  1  0  0  0  0
  1 14  1  0  0  0  0
  2  9  1  0  0  0  0
  2 10  1  0  0  0  0
  3 11  2  0  0  0  0
  4 14  2  0  0  0  0
  5  6  1  0  0  0  0
  5  7  1  0  0  0  0
  5  8  1  0  0  0  0
  5 22  1  1  0  0  0
  6 13  1  0  0  0  0
  6 23  1  1  0  0  0
  7  9  2  0  0  0  0
  7 11  1  0  0  0  0
  8 14  1  0  0  0  0
  8 24  1  0  0  0  0
  8 25  1  0  0  0  0
  9 15  1  0  0  0  0
 10 12  1  0  0  0  0
 10 16  1  6  0  0  0
 10 26  1  0  0  0  0
 11 12  1  0  0  0  0
 12 27  1  0  0  0  0
 12 28  1  0  0  0  0
 13 15  2  0  0  0  0
 13 29  1  0  0  0  0
 15 30  1  0  0  0  0
 16 17  2  0  0  0  0
 16 18  1  0  0  0  0
 17 19  1  0  0  0  0
 17 31  1  0  0  0  0
 18 20  2  0  0  0  0
 18 32  1  0  0  0  0
 19 21  2  0  0  0  0
 19 33  1  0  0  0  0
 20 21  1  0  0  0  0
 20 34  1  0  0  0  0
 21 35  1  0  0  0  0
M  END
> <PUBCHEM_COMPOUND_CID>
10356404

> <PUBCHEM_COMPOUND_CANONICALIZED>
1

> <PUBCHEM_CACTVS_COMPLEXITY>
539

> <PUBCHEM_CACTVS_HBOND_ACCEPTOR>
4

> <PUBCHEM_CACTVS_HBOND_DONOR>
0

> <PUBCHEM_CACTVS_ROTATABLE_BOND>
1

> <PUBCHEM_CACTVS_SUBSKEYS>
AAADccB4OAAAAAAAAAAAAAAAAAAAASAAAAAwQIAAAAAAAECBAAAAGgAAAAAADRSgmAIwCIAABACIAqDSCAACCAAgIAAIiAEACMgIJjaAMRiCMAAk4AEIqQeKzvCuAAAAAAAAAAAAAAAAAAAAAAAAAAAAAA==

> <PUBCHEM_IUPAC_OPENEYE_NAME>
(3aS,7R,9bR)-7-phenyl-3a,7,8,9b-tetrahydro-1H-furo[3,2-f]chromene-2,9-dione

> <PUBCHEM_IUPAC_CAS_NAME>
(3aS,7R,9bR)-7-phenyl-3a,7,8,9b-tetrahydro-1H-furo[3,2-f][1]benzopyran-2,9-dione

> <PUBCHEM_IUPAC_NAME_MARKUP>
(3<I>a</I><I>S</I>,7<I>R</I>,9<I>b</I><I>R</I>)-7-phenyl-3<I>a</I>,7,8,9<I>b</I>-tetrahydro-1<I>H</I>-furo[3,2-f]chromene-2,9-dione

> <PUBCHEM_IUPAC_NAME>
(3aS,7R,9bR)-7-phenyl-3a,7,8,9b-tetrahydro-1H-furo[3,2-f]chromene-2,9-dione

> <PUBCHEM_IUPAC_SYSTEMATIC_NAME>
(3aS,7R,9bR)-7-phenyl-3a,7,8,9b-tetrahydro-1H-furo[3,2-f]chromene-2,9-dione

> <PUBCHEM_IUPAC_TRADITIONAL_NAME>
(3aS,7R,9bR)-7-phenyl-3a,7,8,9b-tetrahydro-1H-furo[3,2-f]chromene-2,9-quinone

> <PUBCHEM_IUPAC_INCHI>
InChI=1S/C17H14O4/c18-12-9-15(10-4-2-1-3-5-10)20-14-7-6-13-11(17(12)14)8-16(19)21-13/h1-7,11,13,15H,8-9H2/t11-,13-,15+/m0/s1

> <PUBCHEM_IUPAC_INCHIKEY>
VISHTIMCJNWYLP-CORIIIEPSA-N

> <PUBCHEM_XLOGP3_AA>
1.6

> <PUBCHEM_EXACT_MASS>
282.08920892

> <PUBCHEM_MOLECULAR_FORMULA>
C17H14O4

> <PUBCHEM_MOLECULAR_WEIGHT>
282.29

> <PUBCHEM_OPENEYE_CAN_SMILES>
C1C2C(C=CC3=C2C(=O)CC(O3)C4=CC=CC=C4)OC1=O

> <PUBCHEM_OPENEYE_ISO_SMILES>
C1[C@H]2[C@H](C=CC3=C2C(=O)C[C@@H](O3)C4=CC=CC=C4)OC1=O

> <PUBCHEM_CACTVS_TPSA>
52.6

> <PUBCHEM_MONOISOTOPIC_WEIGHT>
282.08920892

> <PUBCHEM_TOTAL_CHARGE>
0

> <PUBCHEM_HEAVY_ATOM_COUNT>
21

> <PUBCHEM_ATOM_DEF_STEREO_COUNT>
3

> <PUBCHEM_ATOM_UDEF_STEREO_COUNT>
0

> <PUBCHEM_BOND_DEF_STEREO_COUNT>
0

> <PUBCHEM_BOND_UDEF_STEREO_COUNT>
0

> <PUBCHEM_ISOTOPIC_ATOM_COUNT>
0

> <PUBCHEM_COMPONENT_COUNT>
1

> <PUBCHEM_CACTVS_TAUTO_COUNT>
-1

> <PUBCHEM_COORDINATE_TYPE>
1
5
255

> <PUBCHEM_BONDANNOTATIONS>
10  16  6
16  17  8
16  18  8
17  19  8
18  20  8
19  21  8
20  21  8
5  22  5
6  23  5

$$$$
