71521968
  -OEChem-05162308212D

 47 52  0     1  0  0  0  0  0999 V2000
    2.0000   -1.5767    0.0000 O   0  0  0  0  0  0  0  0  0  0  0  0
    2.4581    1.9312    0.0000 O   0  0  0  0  0  0  0  0  0  0  0  0
    4.1733    2.1723    0.0000 O   0  0  0  0  0  0  0  0  0  0  0  0
   10.3283   -2.5452    0.0000 O   0  0  0  0  0  0  0  0  0  0  0  0
   10.5008   -0.9450    0.0000 O   0  0  0  0  0  0  0  0  0  0  0  0
    5.3124   -1.2889    0.0000 C   0  0  2  0  0  0  0  0  0  0  0  0
    5.1032   -2.2607    0.0000 C   0  0  2  0  0  0  0  0  0  0  0  0
    4.4464   -0.7889    0.0000 C   0  0  2  0  0  0  0  0  0  0  0  0
    6.1784   -0.7889    0.0000 C   0  0  1  0  0  0  0  0  0  0  0  0
    5.9760   -1.7698    0.0000 C   0  0  1  0  0  0  0  0  0  0  0  0
    3.7094   -1.4560    0.0000 C   0  0  1  0  0  0  0  0  0  0  0  0
    4.1145   -2.3638    0.0000 C   0  0  0  0  0  0  0  0  0  0  0  0
    4.4464    0.2111    0.0000 C   0  0  1  0  0  0  0  0  0  0  0  0
    6.1784    0.2111    0.0000 C   0  0  0  0  0  0  0  0  0  0  0  0
    6.7835   -2.3596    0.0000 C   0  0  0  0  0  0  0  0  0  0  0  0
    5.3124    0.7111    0.0000 C   0  0  0  0  0  0  0  0  0  0  0  0
    2.8261   -1.0132    0.0000 C   0  0  0  0  0  0  0  0  0  0  0  0
    3.5244    0.5664    0.0000 C   0  0  0  0  0  0  0  0  0  0  0  0
    2.7361   -0.0293    0.0000 C   0  0  0  0  0  0  0  0  0  0  0  0
    7.6981   -1.9553    0.0000 C   0  0  0  0  0  0  0  0  0  0  0  0
    3.3853    1.5566    0.0000 C   0  0  0  0  0  0  0  0  0  0  0  0
    8.5056   -2.5452    0.0000 C   0  0  0  0  0  0  0  0  0  0  0  0
    7.8053   -0.9611    0.0000 C   0  0  0  0  0  0  0  0  0  0  0  0
    9.4202   -2.1408    0.0000 C   0  0  0  0  0  0  0  0  0  0  0  0
    8.7199   -0.5567    0.0000 C   0  0  0  0  0  0  0  0  0  0  0  0
    9.5274   -1.1466    0.0000 C   0  0  0  0  0  0  0  0  0  0  0  0
   10.9948   -1.8076    0.0000 C   0  0  0  0  0  0  0  0  0  0  0  0
    4.6612   -1.8353    0.0000 H   0  0  0  0  0  0  0  0  0  0  0  0
    5.3610   -3.0707    0.0000 H   0  0  0  0  0  0  0  0  0  0  0  0
    4.1559   -1.5878    0.0000 H   0  0  0  0  0  0  0  0  0  0  0  0
    7.0240   -0.8753    0.0000 H   0  0  0  0  0  0  0  0  0  0  0  0
    6.5545   -1.5466    0.0000 H   0  0  0  0  0  0  0  0  0  0  0  0
    3.0950   -2.0434    0.0000 H   0  0  0  0  0  0  0  0  0  0  0  0
    3.5249   -2.5556    0.0000 H   0  0  0  0  0  0  0  0  0  0  0  0
    4.2432   -2.9703    0.0000 H   0  0  0  0  0  0  0  0  0  0  0  0
    4.3802    1.0585    0.0000 H   0  0  0  0  0  0  0  0  0  0  0  0
    6.7154    0.5211    0.0000 H   0  0  0  0  0  0  0  0  0  0  0  0
    6.3364   -2.7892    0.0000 H   0  0  0  0  0  0  0  0  0  0  0  0
    7.1289   -2.8746    0.0000 H   0  0  0  0  0  0  0  0  0  0  0  0
    5.3124    1.3311    0.0000 H   0  0  0  0  0  0  0  0  0  0  0  0
    2.1691    0.2214    0.0000 H   0  0  0  0  0  0  0  0  0  0  0  0
    8.4392   -3.1616    0.0000 H   0  0  0  0  0  0  0  0  0  0  0  0
    7.3046   -0.5953    0.0000 H   0  0  0  0  0  0  0  0  0  0  0  0
    8.7863    0.0597    0.0000 H   0  0  0  0  0  0  0  0  0  0  0  0
    2.3718    2.5452    0.0000 H   0  0  0  0  0  0  0  0  0  0  0  0
   11.4086   -2.2693    0.0000 H   0  0  0  0  0  0  0  0  0  0  0  0
   11.4975   -1.4446    0.0000 H   0  0  0  0  0  0  0  0  0  0  0  0
  1 17  2  0  0  0  0
  2 21  1  0  0  0  0
  2 45  1  0  0  0  0
  3 21  2  0  0  0  0
  4 24  1  0  0  0  0
  4 27  1  0  0  0  0
  5 26  1  0  0  0  0
  5 27  1  0  0  0  0
  6  7  1  0  0  0  0
  6  8  1  0  0  0  0
  6  9  1  0  0  0  0
  6 28  1  1  0  0  0
  7 10  1  0  0  0  0
  7 12  1  0  0  0  0
  7 29  1  1  0  0  0
  8 11  1  0  0  0  0
  8 13  1  0  0  0  0
  8 30  1  1  0  0  0
  9 10  1  0  0  0  0
  9 14  1  0  0  0  0
  9 31  1  1  0  0  0
 10 15  1  1  0  0  0
 10 32  1  0  0  0  0
 11 12  1  0  0  0  0
 11 17  1  0  0  0  0
 11 33  1  6  0  0  0
 12 34  1  0  0  0  0
 12 35  1  0  0  0  0
 13 16  1  0  0  0  0
 13 18  1  0  0  0  0
 13 36  1  1  0  0  0
 14 16  2  0  0  0  0
 14 37  1  0  0  0  0
 15 20  1  0  0  0  0
 15 38  1  0  0  0  0
 15 39  1  0  0  0  0
 16 40  1  0  0  0  0
 17 19  1  0  0  0  0
 18 19  2  0  0  0  0
 18 21  1  0  0  0  0
 19 41  1  0  0  0  0
 20 22  2  0  0  0  0
 20 23  1  0  0  0  0
 22 24  1  0  0  0  0
 22 42  1  0  0  0  0
 23 25  2  0  0  0  0
 23 43  1  0  0  0  0
 24 26  2  0  0  0  0
 25 26  1  0  0  0  0
 25 44  1  0  0  0  0
 27 46  1  0  0  0  0
 27 47  1  0  0  0  0
M  END
> <PUBCHEM_COMPOUND_CID>
71521968

> <PUBCHEM_COMPOUND_CANONICALIZED>
1

> <PUBCHEM_CACTVS_COMPLEXITY>
754

> <PUBCHEM_CACTVS_HBOND_ACCEPTOR>
5

> <PUBCHEM_CACTVS_HBOND_DONOR>
1

> <PUBCHEM_CACTVS_ROTATABLE_BOND>
3

> <PUBCHEM_CACTVS_SUBSKEYS>
AAADceB4OAAAAAAAAAAAAAAAAABgAaIAAAAwQIAABgAQAEiBAAAAGgAACAAADQSAmAMwDoAABgCIAqDSCAACCAAgIAAIiAEGiMgdJjKEMRqgcCIkwBEOuYeIyPCOoAABAAAAQABAAAIAAACAAQAACAAAAA==

> <PUBCHEM_IUPAC_OPENEYE_NAME>
(1S,2S,3R,6R,10R,11S,12S)-2-(1,3-benzodioxol-5-ylmethyl)-9-oxo-tetracyclo[8.2.1.03,12.06,11]trideca-4,7-diene-7-carboxylic acid

> <PUBCHEM_IUPAC_CAS_NAME>
(1S,2S,3R,6R,10R,11S,12S)-2-(1,3-benzodioxol-5-ylmethyl)-9-oxo-7-tetracyclo[8.2.1.03,12.06,11]trideca-4,7-dienecarboxylic acid

> <PUBCHEM_IUPAC_NAME_MARKUP>
(1<I>S</I>,2<I>S</I>,3<I>R</I>,6<I>R</I>,10<I>R</I>,11<I>S</I>,12<I>S</I>)-2-(1,3-benzodioxol-5-ylmethyl)-9-oxotetracyclo[8.2.1.0<SUP>3,12</SUP>.0<SUP>6,11</SUP>]trideca-4,7-diene-7-carboxylic acid

> <PUBCHEM_IUPAC_NAME>
(1S,2S,3R,6R,10R,11S,12S)-2-(1,3-benzodioxol-5-ylmethyl)-9-oxotetracyclo[8.2.1.03,12.06,11]trideca-4,7-diene-7-carboxylic acid

> <PUBCHEM_IUPAC_SYSTEMATIC_NAME>
(1S,2S,3R,6R,10R,11S,12S)-2-(1,3-benzodioxol-5-ylmethyl)-9-oxidanylidene-tetracyclo[8.2.1.03,12.06,11]trideca-4,7-diene-7-carboxylic acid

> <PUBCHEM_IUPAC_TRADITIONAL_NAME>
(1S,2S,3R,6R,10R,11S,12S)-9-keto-2-piperonyl-tetracyclo[8.2.1.03,12.06,11]trideca-4,7-diene-7-carboxylic acid

> <PUBCHEM_IUPAC_INCHI>
InChI=1S/C22H20O5/c23-17-8-15(22(24)25)12-3-2-11-13(14-7-16(17)21(12)20(11)14)5-10-1-4-18-19(6-10)27-9-26-18/h1-4,6,8,11-14,16,20-21H,5,7,9H2,(H,24,25)/t11-,12+,13-,14+,16+,20-,21+/m1/s1

> <PUBCHEM_IUPAC_INCHIKEY>
WIFSTHBLXUMVNG-OQBXOKOHSA-N

> <PUBCHEM_XLOGP3_AA>
3

> <PUBCHEM_EXACT_MASS>
364.13107373

> <PUBCHEM_MOLECULAR_FORMULA>
C22H20O5

> <PUBCHEM_MOLECULAR_WEIGHT>
364.4

> <PUBCHEM_OPENEYE_CAN_SMILES>
C1C2C(C3C2C4C1C(=O)C=C(C4C=C3)C(=O)O)CC5=CC6=C(C=C5)OCO6

> <PUBCHEM_OPENEYE_ISO_SMILES>
C1[C@H]2[C@@H]([C@@H]3[C@H]2[C@@H]4[C@@H]1C(=O)C=C([C@@H]4C=C3)C(=O)O)CC5=CC6=C(C=C5)OCO6

> <PUBCHEM_CACTVS_TPSA>
72.8

> <PUBCHEM_MONOISOTOPIC_WEIGHT>
364.13107373

> <PUBCHEM_TOTAL_CHARGE>
0

> <PUBCHEM_HEAVY_ATOM_COUNT>
27

> <PUBCHEM_ATOM_DEF_STEREO_COUNT>
7

> <PUBCHEM_ATOM_UDEF_STEREO_COUNT>
0

> <PUBCHEM_BOND_DEF_STEREO_COUNT>
0

> <PUBCHEM_BOND_UDEF_STEREO_COUNT>
0

> <PUBCHEM_ISOTOPIC_ATOM_COUNT>
0

> <PUBCHEM_COMPONENT_COUNT>
1

> <PUBCHEM_CACTVS_TAUTO_COUNT>
-1

> <PUBCHEM_COORDINATE_TYPE>
1
5
255

> <PUBCHEM_BONDANNOTATIONS>
10  15  5
11  33  6
13  36  5
20  22  8
20  23  8
22  24  8
23  25  8
24  26  8
25  26  8
6  28  5
7  29  5
8  30  5
9  31  5

$$$$
