54585962
  -OEChem-05162309452D

125125  0     1  0  0  0  0  0999 V2000
   11.1972    7.4400    0.0000 O   0  0  0  0  0  0  0  0  0  0  0  0
   10.3312    5.9400    0.0000 O   0  0  0  0  0  0  0  0  0  0  0  0
   12.0632    8.9400    0.0000 O   0  0  0  0  0  0  0  0  0  0  0  0
    9.4651    4.4400    0.0000 O   0  0  0  0  0  0  0  0  0  0  0  0
   12.9292   10.4400    0.0000 O   0  0  0  0  0  0  0  0  0  0  0  0
   13.7953   11.9400    0.0000 O   0  0  0  0  0  0  0  0  0  0  0  0
   12.0632   13.9400    0.0000 O   0  0  0  0  0  0  0  0  0  0  0  0
   15.5273   11.9400    0.0000 O   0  0  0  0  0  0  0  0  0  0  0  0
   10.3312    7.9400    0.0000 C   0  0  1  0  0  0  0  0  0  0  0  0
    9.4651    7.4400    0.0000 C   0  0  0  0  0  0  0  0  0  0  0  0
    9.4651    6.4400    0.0000 C   0  0  2  0  0  0  0  0  0  0  0  0
   10.3312    8.9400    0.0000 C   0  0  0  0  0  0  0  0  0  0  0  0
   11.1972    9.4400    0.0000 C   0  0  1  0  0  0  0  0  0  0  0  0
    8.5991    5.9400    0.0000 C   0  0  0  0  0  0  0  0  0  0  0  0
    8.5991    4.9400    0.0000 C   0  0  1  0  0  0  0  0  0  0  0  0
   11.1972   10.4400    0.0000 C   0  0  0  0  0  0  0  0  0  0  0  0
   12.0632   10.9400    0.0000 C   0  0  1  0  0  0  0  0  0  0  0  0
    7.7331    4.4400    0.0000 C   0  0  0  0  0  0  0  0  0  0  0  0
    7.7331    3.4400    0.0000 C   0  0  0  0  0  0  0  0  0  0  0  0
   12.0632   11.9400    0.0000 C   0  0  0  0  0  0  0  0  0  0  0  0
    6.8671    2.9400    0.0000 C   0  0  0  0  0  0  0  0  0  0  0  0
   12.9292   12.4400    0.0000 C   0  0  1  0  0  0  0  0  0  0  0  0
    6.8671    1.9400    0.0000 C   0  0  0  0  0  0  0  0  0  0  0  0
    6.0010    1.4400    0.0000 C   0  0  0  0  0  0  0  0  0  0  0  0
    6.0010    0.4400    0.0000 C   0  0  0  0  0  0  0  0  0  0  0  0
   12.9292   13.4400    0.0000 C   0  0  2  0  0  0  0  0  0  0  0  0
    5.1350   -0.0600    0.0000 C   0  0  0  0  0  0  0  0  0  0  0  0
    5.1350   -1.0600    0.0000 C   0  0  0  0  0  0  0  0  0  0  0  0
    4.2690   -1.5600    0.0000 C   0  0  0  0  0  0  0  0  0  0  0  0
    4.2690   -2.5600    0.0000 C   0  0  0  0  0  0  0  0  0  0  0  0
   13.7953   13.9400    0.0000 C   0  0  0  0  0  0  0  0  0  0  0  0
    3.4030   -3.0600    0.0000 C   0  0  0  0  0  0  0  0  0  0  0  0
    5.1350   -9.0600    0.0000 C   0  0  0  0  0  0  0  0  0  0  0  0
    5.1350  -10.0600    0.0000 C   0  0  0  0  0  0  0  0  0  0  0  0
    4.2690   -8.5600    0.0000 C   0  0  0  0  0  0  0  0  0  0  0  0
    6.0010  -10.5600    0.0000 C   0  0  0  0  0  0  0  0  0  0  0  0
   14.6613   12.4400    0.0000 C   0  0  0  0  0  0  0  0  0  0  0  0
   14.6613   13.4400    0.0000 C   0  0  0  0  0  0  0  0  0  0  0  0
    4.2690   -7.5600    0.0000 C   0  0  0  0  0  0  0  0  0  0  0  0
    6.0010  -11.5600    0.0000 C   0  0  0  0  0  0  0  0  0  0  0  0
    3.4030   -4.0600    0.0000 C   0  0  0  0  0  0  0  0  0  0  0  0
    3.4030   -7.0600    0.0000 C   0  0  0  0  0  0  0  0  0  0  0  0
    6.8671  -12.0600    0.0000 C   0  0  0  0  0  0  0  0  0  0  0  0
    3.4030   -6.0600    0.0000 C   0  0  0  0  0  0  0  0  0  0  0  0
    6.8671  -13.0600    0.0000 C   0  0  0  0  0  0  0  0  0  0  0  0
    2.5369   -4.5600    0.0000 C   0  0  0  0  0  0  0  0  0  0  0  0
    2.5369   -5.5600    0.0000 C   0  0  0  0  0  0  0  0  0  0  0  0
    7.7331  -13.5600    0.0000 C   0  0  0  0  0  0  0  0  0  0  0  0
    7.7331  -14.5600    0.0000 C   0  0  0  0  0  0  0  0  0  0  0  0
   10.8681    8.2500    0.0000 H   0  0  0  0  0  0  0  0  0  0  0  0
    9.2531    8.0226    0.0000 H   0  0  0  0  0  0  0  0  0  0  0  0
    8.8546    7.3323    0.0000 H   0  0  0  0  0  0  0  0  0  0  0  0
   10.0021    6.7500    0.0000 H   0  0  0  0  0  0  0  0  0  0  0  0
   10.1191    9.5226    0.0000 H   0  0  0  0  0  0  0  0  0  0  0  0
    9.7206    8.8323    0.0000 H   0  0  0  0  0  0  0  0  0  0  0  0
   11.1972    8.8200    0.0000 H   0  0  0  0  0  0  0  0  0  0  0  0
    8.3871    6.5226    0.0000 H   0  0  0  0  0  0  0  0  0  0  0  0
    7.9885    5.8323    0.0000 H   0  0  0  0  0  0  0  0  0  0  0  0
    8.5991    4.3200    0.0000 H   0  0  0  0  0  0  0  0  0  0  0  0
   10.9851   11.0226    0.0000 H   0  0  0  0  0  0  0  0  0  0  0  0
   10.5866   10.3323    0.0000 H   0  0  0  0  0  0  0  0  0  0  0  0
   12.6002   11.2500    0.0000 H   0  0  0  0  0  0  0  0  0  0  0  0
    7.5210    5.0226    0.0000 H   0  0  0  0  0  0  0  0  0  0  0  0
    7.1225    4.3323    0.0000 H   0  0  0  0  0  0  0  0  0  0  0  0
    7.9451    2.8574    0.0000 H   0  0  0  0  0  0  0  0  0  0  0  0
    8.3437    3.5477    0.0000 H   0  0  0  0  0  0  0  0  0  0  0  0
   11.8512   12.5226    0.0000 H   0  0  0  0  0  0  0  0  0  0  0  0
   11.4526   11.8323    0.0000 H   0  0  0  0  0  0  0  0  0  0  0  0
    6.6550    3.5226    0.0000 H   0  0  0  0  0  0  0  0  0  0  0  0
    6.2565    2.8323    0.0000 H   0  0  0  0  0  0  0  0  0  0  0  0
   12.9292   11.8200    0.0000 H   0  0  0  0  0  0  0  0  0  0  0  0
    7.0791    1.3574    0.0000 H   0  0  0  0  0  0  0  0  0  0  0  0
    7.4776    2.0477    0.0000 H   0  0  0  0  0  0  0  0  0  0  0  0
    5.7890    2.0226    0.0000 H   0  0  0  0  0  0  0  0  0  0  0  0
    5.3905    1.3323    0.0000 H   0  0  0  0  0  0  0  0  0  0  0  0
    6.2131   -0.1426    0.0000 H   0  0  0  0  0  0  0  0  0  0  0  0
    6.6116    0.5477    0.0000 H   0  0  0  0  0  0  0  0  0  0  0  0
   12.3923   13.1300    0.0000 H   0  0  0  0  0  0  0  0  0  0  0  0
    4.9230    0.5226    0.0000 H   0  0  0  0  0  0  0  0  0  0  0  0
    4.5244   -0.1677    0.0000 H   0  0  0  0  0  0  0  0  0  0  0  0
    5.3471   -1.6426    0.0000 H   0  0  0  0  0  0  0  0  0  0  0  0
    5.7456   -0.9523    0.0000 H   0  0  0  0  0  0  0  0  0  0  0  0
   11.1972    6.8200    0.0000 H   0  0  0  0  0  0  0  0  0  0  0  0
   10.3312    5.3200    0.0000 H   0  0  0  0  0  0  0  0  0  0  0  0
   12.0632    8.3200    0.0000 H   0  0  0  0  0  0  0  0  0  0  0  0
    9.4651    3.8200    0.0000 H   0  0  0  0  0  0  0  0  0  0  0  0
    4.0569   -0.9774    0.0000 H   0  0  0  0  0  0  0  0  0  0  0  0
    3.6584   -1.6677    0.0000 H   0  0  0  0  0  0  0  0  0  0  0  0
   12.9292    9.8200    0.0000 H   0  0  0  0  0  0  0  0  0  0  0  0
    4.4810   -3.1426    0.0000 H   0  0  0  0  0  0  0  0  0  0  0  0
    4.8796   -2.4523    0.0000 H   0  0  0  0  0  0  0  0  0  0  0  0
   13.7953   14.5600    0.0000 H   0  0  0  0  0  0  0  0  0  0  0  0
    3.1909   -2.4774    0.0000 H   0  0  0  0  0  0  0  0  0  0  0  0
    2.7924   -3.1677    0.0000 H   0  0  0  0  0  0  0  0  0  0  0  0
    5.7456   -9.1677    0.0000 H   0  0  0  0  0  0  0  0  0  0  0  0
    5.3471   -8.4774    0.0000 H   0  0  0  0  0  0  0  0  0  0  0  0
    4.5244   -9.9523    0.0000 H   0  0  0  0  0  0  0  0  0  0  0  0
    4.9230  -10.6426    0.0000 H   0  0  0  0  0  0  0  0  0  0  0  0
    3.6584   -8.4523    0.0000 H   0  0  0  0  0  0  0  0  0  0  0  0
    4.0569   -9.1426    0.0000 H   0  0  0  0  0  0  0  0  0  0  0  0
    6.6116  -10.6677    0.0000 H   0  0  0  0  0  0  0  0  0  0  0  0
    6.2131   -9.9774    0.0000 H   0  0  0  0  0  0  0  0  0  0  0  0
   15.1982   13.7500    0.0000 H   0  0  0  0  0  0  0  0  0  0  0  0
    4.8796   -7.6677    0.0000 H   0  0  0  0  0  0  0  0  0  0  0  0
    4.4810   -6.9774    0.0000 H   0  0  0  0  0  0  0  0  0  0  0  0
    5.3905  -11.4523    0.0000 H   0  0  0  0  0  0  0  0  0  0  0  0
    5.7890  -12.1426    0.0000 H   0  0  0  0  0  0  0  0  0  0  0  0
    3.6150   -4.6426    0.0000 H   0  0  0  0  0  0  0  0  0  0  0  0
    4.0135   -3.9523    0.0000 H   0  0  0  0  0  0  0  0  0  0  0  0
   12.0632   14.5600    0.0000 H   0  0  0  0  0  0  0  0  0  0  0  0
    2.7924   -6.9523    0.0000 H   0  0  0  0  0  0  0  0  0  0  0  0
    3.1909   -7.6426    0.0000 H   0  0  0  0  0  0  0  0  0  0  0  0
    7.4776  -12.1677    0.0000 H   0  0  0  0  0  0  0  0  0  0  0  0
    7.0791  -11.4774    0.0000 H   0  0  0  0  0  0  0  0  0  0  0  0
    4.0135   -6.1677    0.0000 H   0  0  0  0  0  0  0  0  0  0  0  0
    3.6150   -5.4774    0.0000 H   0  0  0  0  0  0  0  0  0  0  0  0
    6.2565  -12.9523    0.0000 H   0  0  0  0  0  0  0  0  0  0  0  0
    6.6550  -13.6426    0.0000 H   0  0  0  0  0  0  0  0  0  0  0  0
    2.0000   -4.2500    0.0000 H   0  0  0  0  0  0  0  0  0  0  0  0
    2.0000   -5.8700    0.0000 H   0  0  0  0  0  0  0  0  0  0  0  0
    8.3437  -13.6677    0.0000 H   0  0  0  0  0  0  0  0  0  0  0  0
    7.9451  -12.9774    0.0000 H   0  0  0  0  0  0  0  0  0  0  0  0
    7.1131  -14.5600    0.0000 H   0  0  0  0  0  0  0  0  0  0  0  0
    7.7331  -15.1800    0.0000 H   0  0  0  0  0  0  0  0  0  0  0  0
    8.3531  -14.5600    0.0000 H   0  0  0  0  0  0  0  0  0  0  0  0
  9  1  1  1  0  0  0
  1 83  1  0  0  0  0
 11  2  1  1  0  0  0
  2 84  1  0  0  0  0
 13  3  1  1  0  0  0
  3 85  1  0  0  0  0
 15  4  1  6  0  0  0
  4 86  1  0  0  0  0
 17  5  1  1  0  0  0
  5 89  1  0  0  0  0
  6 22  1  0  0  0  0
  6 37  1  0  0  0  0
 26  7  1  1  0  0  0
  7110  1  0  0  0  0
  8 37  2  0  0  0  0
  9 10  1  0  0  0  0
  9 12  1  0  0  0  0
  9 50  1  0  0  0  0
 10 11  1  0  0  0  0
 10 51  1  0  0  0  0
 10 52  1  0  0  0  0
 11 14  1  0  0  0  0
 11 53  1  0  0  0  0
 12 13  1  0  0  0  0
 12 54  1  0  0  0  0
 12 55  1  0  0  0  0
 13 16  1  0  0  0  0
 13 56  1  0  0  0  0
 14 15  1  0  0  0  0
 14 57  1  0  0  0  0
 14 58  1  0  0  0  0
 15 18  1  0  0  0  0
 15 59  1  0  0  0  0
 16 17  1  0  0  0  0
 16 60  1  0  0  0  0
 16 61  1  0  0  0  0
 17 20  1  0  0  0  0
 17 62  1  0  0  0  0
 18 19  1  0  0  0  0
 18 63  1  0  0  0  0
 18 64  1  0  0  0  0
 19 21  1  0  0  0  0
 19 65  1  0  0  0  0
 19 66  1  0  0  0  0
 22 20  1  1  0  0  0
 20 67  1  0  0  0  0
 20 68  1  0  0  0  0
 21 23  1  0  0  0  0
 21 69  1  0  0  0  0
 21 70  1  0  0  0  0
 22 26  1  0  0  0  0
 22 71  1  0  0  0  0
 23 24  1  0  0  0  0
 23 72  1  0  0  0  0
 23 73  1  0  0  0  0
 24 25  1  0  0  0  0
 24 74  1  0  0  0  0
 24 75  1  0  0  0  0
 25 27  1  0  0  0  0
 25 76  1  0  0  0  0
 25 77  1  0  0  0  0
 26 31  1  0  0  0  0
 26 78  1  0  0  0  0
 27 28  1  0  0  0  0
 27 79  1  0  0  0  0
 27 80  1  0  0  0  0
 28 29  1  0  0  0  0
 28 81  1  0  0  0  0
 28 82  1  0  0  0  0
 29 30  1  0  0  0  0
 29 87  1  0  0  0  0
 29 88  1  0  0  0  0
 30 32  1  0  0  0  0
 30 90  1  0  0  0  0
 30 91  1  0  0  0  0
 31 38  2  0  0  0  0
 31 92  1  0  0  0  0
 32 41  1  0  0  0  0
 32 93  1  0  0  0  0
 32 94  1  0  0  0  0
 33 34  1  0  0  0  0
 33 35  1  0  0  0  0
 33 95  1  0  0  0  0
 33 96  1  0  0  0  0
 34 36  1  0  0  0  0
 34 97  1  0  0  0  0
 34 98  1  0  0  0  0
 35 39  1  0  0  0  0
 35 99  1  0  0  0  0
 35100  1  0  0  0  0
 36 40  1  0  0  0  0
 36101  1  0  0  0  0
 36102  1  0  0  0  0
 37 38  1  0  0  0  0
 38103  1  0  0  0  0
 39 42  1  0  0  0  0
 39104  1  0  0  0  0
 39105  1  0  0  0  0
 40 43  1  0  0  0  0
 40106  1  0  0  0  0
 40107  1  0  0  0  0
 41 46  1  0  0  0  0
 41108  1  0  0  0  0
 41109  1  0  0  0  0
 42 44  1  0  0  0  0
 42111  1  0  0  0  0
 42112  1  0  0  0  0
 43 45  1  0  0  0  0
 43113  1  0  0  0  0
 43114  1  0  0  0  0
 44 47  1  0  0  0  0
 44115  1  0  0  0  0
 44116  1  0  0  0  0
 45 48  1  0  0  0  0
 45117  1  0  0  0  0
 45118  1  0  0  0  0
 46 47  2  0  0  0  0
 46119  1  0  0  0  0
 47120  1  0  0  0  0
 48 49  1  0  0  0  0
 48121  1  0  0  0  0
 48122  1  0  0  0  0
 49123  1  0  0  0  0
 49124  1  0  0  0  0
 49125  1  0  0  0  0
M  END
> <PUBCHEM_COMPOUND_CID>
54585962

> <PUBCHEM_COMPOUND_CANONICALIZED>
1

> <PUBCHEM_CACTVS_COMPLEXITY>
817

> <PUBCHEM_CACTVS_HBOND_ACCEPTOR>
8

> <PUBCHEM_CACTVS_HBOND_DONOR>
6

> <PUBCHEM_CACTVS_ROTATABLE_BOND>
34

> <PUBCHEM_CACTVS_SUBSKEYS>
AAADcfB8PAAAAAAAAAAAAAAAAAAAAAAAAAAgAAAAAAAAAAAAAAAAGgAACAAACBSggAICCAAABgCIACDSCAAAAAAgAAAICAAAAEgBFAIAIQACUAAFwAALMYPA4KwAAAAAAAAAAAAAAAAAAAAAAAAAAAAAAA==

> <PUBCHEM_IUPAC_OPENEYE_NAME>
(2S,3S)-3-hydroxy-2-[(Z,2S,4S,6S,8S,10R)-2,4,6,8,10-pentahydroxyhexatriacont-23-enyl]-2,3-dihydropyran-6-one

> <PUBCHEM_IUPAC_CAS_NAME>
(2S,3S)-3-hydroxy-2-[(Z,2S,4S,6S,8S,10R)-2,4,6,8,10-pentahydroxyhexatriacont-23-enyl]-2,3-dihydropyran-6-one

> <PUBCHEM_IUPAC_NAME_MARKUP>
(2<I>S</I>,3<I>S</I>)-3-hydroxy-2-[(<I>Z</I>,2<I>S</I>,4<I>S</I>,6<I>S</I>,8<I>S</I>,10<I>R</I>)-2,4,6,8,10-pentahydroxyhexatriacont-23-enyl]-2,3-dihydropyran-6-one

> <PUBCHEM_IUPAC_NAME>
(2S,3S)-3-hydroxy-2-[(Z,2S,4S,6S,8S,10R)-2,4,6,8,10-pentahydroxyhexatriacont-23-enyl]-2,3-dihydropyran-6-one

> <PUBCHEM_IUPAC_SYSTEMATIC_NAME>
(2S,3S)-3-oxidanyl-2-[(Z,2S,4S,6S,8S,10R)-2,4,6,8,10-pentakis(oxidanyl)hexatriacont-23-enyl]-2,3-dihydropyran-6-one

> <PUBCHEM_IUPAC_TRADITIONAL_NAME>
(2S,3S)-3-hydroxy-2-[(Z,2S,4S,6S,8S,10R)-2,4,6,8,10-pentahydroxyhexatriacont-23-enyl]-2,3-dihydropyran-6-one

> <PUBCHEM_IUPAC_INCHI>
InChI=1S/C41H76O8/c1-2-3-4-5-6-7-8-9-10-11-12-13-14-15-16-17-18-19-20-21-22-23-24-25-26-34(42)29-35(43)30-36(44)31-37(45)32-38(46)33-40-39(47)27-28-41(48)49-40/h13-14,27-28,34-40,42-47H,2-12,15-26,29-33H2,1H3/b14-13-/t34-,35+,36+,37+,38+,39+,40+/m1/s1

> <PUBCHEM_IUPAC_INCHIKEY>
ICKFVMRTBDGNJF-WUJUNAKASA-N

> <PUBCHEM_XLOGP3_AA>
11.1

> <PUBCHEM_EXACT_MASS>
696.55401938

> <PUBCHEM_MOLECULAR_FORMULA>
C41H76O8

> <PUBCHEM_MOLECULAR_WEIGHT>
697.0

> <PUBCHEM_OPENEYE_CAN_SMILES>
CCCCCCCCCCCCC=CCCCCCCCCCCCCC(CC(CC(CC(CC(CC1C(C=CC(=O)O1)O)O)O)O)O)O

> <PUBCHEM_OPENEYE_ISO_SMILES>
CCCCCCCCCCCC/C=C\CCCCCCCCCCCC[C@H](C[C@@H](C[C@@H](C[C@@H](C[C@@H](C[C@H]1[C@H](C=CC(=O)O1)O)O)O)O)O)O

> <PUBCHEM_CACTVS_TPSA>
148

> <PUBCHEM_MONOISOTOPIC_WEIGHT>
696.55401938

> <PUBCHEM_TOTAL_CHARGE>
0

> <PUBCHEM_HEAVY_ATOM_COUNT>
49

> <PUBCHEM_ATOM_DEF_STEREO_COUNT>
7

> <PUBCHEM_ATOM_UDEF_STEREO_COUNT>
0

> <PUBCHEM_BOND_DEF_STEREO_COUNT>
1

> <PUBCHEM_BOND_UDEF_STEREO_COUNT>
0

> <PUBCHEM_ISOTOPIC_ATOM_COUNT>
0

> <PUBCHEM_COMPONENT_COUNT>
1

> <PUBCHEM_CACTVS_TAUTO_COUNT>
-1

> <PUBCHEM_COORDINATE_TYPE>
1
5
255

> <PUBCHEM_BONDANNOTATIONS>
9  1  5
11  2  5
22  20  5
13  3  5
15  4  6
17  5  5
26  7  5

$$$$
