54580079
  -OEChem-05162309452D

118118  0     1  0  0  0  0  0999 V2000
   10.3312    6.6900    0.0000 O   0  0  0  0  0  0  0  0  0  0  0  0
   11.1972    8.1900    0.0000 O   0  0  0  0  0  0  0  0  0  0  0  0
    9.4651    5.1900    0.0000 O   0  0  0  0  0  0  0  0  0  0  0  0
   12.0632    9.6900    0.0000 O   0  0  0  0  0  0  0  0  0  0  0  0
   12.9292   11.1900    0.0000 O   0  0  0  0  0  0  0  0  0  0  0  0
   11.1972   13.1900    0.0000 O   0  0  0  0  0  0  0  0  0  0  0  0
   14.6613   11.1900    0.0000 O   0  0  0  0  0  0  0  0  0  0  0  0
    9.4651    7.1900    0.0000 C   0  0  2  0  0  0  0  0  0  0  0  0
    9.4651    8.1900    0.0000 C   0  0  0  0  0  0  0  0  0  0  0  0
   10.3312    8.6900    0.0000 C   0  0  1  0  0  0  0  0  0  0  0  0
    8.5991    6.6900    0.0000 C   0  0  0  0  0  0  0  0  0  0  0  0
    8.5991    5.6900    0.0000 C   0  0  1  0  0  0  0  0  0  0  0  0
   10.3312    9.6900    0.0000 C   0  0  0  0  0  0  0  0  0  0  0  0
    7.7331    5.1900    0.0000 C   0  0  0  0  0  0  0  0  0  0  0  0
   11.1972   10.1900    0.0000 C   0  0  1  0  0  0  0  0  0  0  0  0
    7.7331    4.1900    0.0000 C   0  0  0  0  0  0  0  0  0  0  0  0
   11.1972   11.1900    0.0000 C   0  0  0  0  0  0  0  0  0  0  0  0
    6.8671    3.6900    0.0000 C   0  0  0  0  0  0  0  0  0  0  0  0
   12.0632   11.6900    0.0000 C   0  0  1  0  0  0  0  0  0  0  0  0
    6.8671    2.6900    0.0000 C   0  0  0  0  0  0  0  0  0  0  0  0
    6.0010    2.1900    0.0000 C   0  0  0  0  0  0  0  0  0  0  0  0
    6.0010    1.1900    0.0000 C   0  0  0  0  0  0  0  0  0  0  0  0
    5.1350    0.6900    0.0000 C   0  0  0  0  0  0  0  0  0  0  0  0
   12.0632   12.6900    0.0000 C   0  0  2  0  0  0  0  0  0  0  0  0
    5.1350   -0.3100    0.0000 C   0  0  0  0  0  0  0  0  0  0  0  0
    4.2690   -0.8100    0.0000 C   0  0  0  0  0  0  0  0  0  0  0  0
    4.2690   -1.8100    0.0000 C   0  0  0  0  0  0  0  0  0  0  0  0
   12.9292   13.1900    0.0000 C   0  0  0  0  0  0  0  0  0  0  0  0
    3.4030   -2.3100    0.0000 C   0  0  0  0  0  0  0  0  0  0  0  0
    5.1350   -8.3100    0.0000 C   0  0  0  0  0  0  0  0  0  0  0  0
    5.1350   -9.3100    0.0000 C   0  0  0  0  0  0  0  0  0  0  0  0
    4.2690   -7.8100    0.0000 C   0  0  0  0  0  0  0  0  0  0  0  0
    6.0010   -9.8100    0.0000 C   0  0  0  0  0  0  0  0  0  0  0  0
    4.2690   -6.8100    0.0000 C   0  0  0  0  0  0  0  0  0  0  0  0
    6.0010  -10.8100    0.0000 C   0  0  0  0  0  0  0  0  0  0  0  0
   13.7953   11.6900    0.0000 C   0  0  0  0  0  0  0  0  0  0  0  0
   13.7953   12.6900    0.0000 C   0  0  0  0  0  0  0  0  0  0  0  0
    3.4030   -3.3100    0.0000 C   0  0  0  0  0  0  0  0  0  0  0  0
    3.4030   -6.3100    0.0000 C   0  0  0  0  0  0  0  0  0  0  0  0
    6.8671  -11.3100    0.0000 C   0  0  0  0  0  0  0  0  0  0  0  0
    3.4030   -5.3100    0.0000 C   0  0  0  0  0  0  0  0  0  0  0  0
    6.8671  -12.3100    0.0000 C   0  0  0  0  0  0  0  0  0  0  0  0
    2.5369   -3.8100    0.0000 C   0  0  0  0  0  0  0  0  0  0  0  0
    2.5369   -4.8100    0.0000 C   0  0  0  0  0  0  0  0  0  0  0  0
    7.7331  -12.8100    0.0000 C   0  0  0  0  0  0  0  0  0  0  0  0
    7.7331  -13.8100    0.0000 C   0  0  0  0  0  0  0  0  0  0  0  0
   10.0021    7.5000    0.0000 H   0  0  0  0  0  0  0  0  0  0  0  0
    9.2531    8.7726    0.0000 H   0  0  0  0  0  0  0  0  0  0  0  0
    8.8546    8.0823    0.0000 H   0  0  0  0  0  0  0  0  0  0  0  0
   10.8681    9.0000    0.0000 H   0  0  0  0  0  0  0  0  0  0  0  0
    8.3871    7.2726    0.0000 H   0  0  0  0  0  0  0  0  0  0  0  0
    7.9885    6.5823    0.0000 H   0  0  0  0  0  0  0  0  0  0  0  0
    8.5991    5.0700    0.0000 H   0  0  0  0  0  0  0  0  0  0  0  0
   10.1191   10.2726    0.0000 H   0  0  0  0  0  0  0  0  0  0  0  0
    9.7206    9.5823    0.0000 H   0  0  0  0  0  0  0  0  0  0  0  0
    7.5210    5.7726    0.0000 H   0  0  0  0  0  0  0  0  0  0  0  0
    7.1225    5.0823    0.0000 H   0  0  0  0  0  0  0  0  0  0  0  0
   11.1972    9.5700    0.0000 H   0  0  0  0  0  0  0  0  0  0  0  0
    7.9451    3.6074    0.0000 H   0  0  0  0  0  0  0  0  0  0  0  0
    8.3437    4.2977    0.0000 H   0  0  0  0  0  0  0  0  0  0  0  0
   10.9851   11.7726    0.0000 H   0  0  0  0  0  0  0  0  0  0  0  0
   10.5866   11.0823    0.0000 H   0  0  0  0  0  0  0  0  0  0  0  0
    6.6550    4.2726    0.0000 H   0  0  0  0  0  0  0  0  0  0  0  0
    6.2565    3.5823    0.0000 H   0  0  0  0  0  0  0  0  0  0  0  0
   12.0632   11.0700    0.0000 H   0  0  0  0  0  0  0  0  0  0  0  0
    7.0791    2.1074    0.0000 H   0  0  0  0  0  0  0  0  0  0  0  0
    7.4776    2.7977    0.0000 H   0  0  0  0  0  0  0  0  0  0  0  0
    5.7890    2.7726    0.0000 H   0  0  0  0  0  0  0  0  0  0  0  0
    5.3905    2.0823    0.0000 H   0  0  0  0  0  0  0  0  0  0  0  0
    6.2131    0.6074    0.0000 H   0  0  0  0  0  0  0  0  0  0  0  0
    6.6116    1.2977    0.0000 H   0  0  0  0  0  0  0  0  0  0  0  0
    4.9230    1.2726    0.0000 H   0  0  0  0  0  0  0  0  0  0  0  0
    4.5244    0.5823    0.0000 H   0  0  0  0  0  0  0  0  0  0  0  0
   12.0632   13.3100    0.0000 H   0  0  0  0  0  0  0  0  0  0  0  0
    5.3471   -0.8926    0.0000 H   0  0  0  0  0  0  0  0  0  0  0  0
    5.7456   -0.2023    0.0000 H   0  0  0  0  0  0  0  0  0  0  0  0
   10.3312    6.0700    0.0000 H   0  0  0  0  0  0  0  0  0  0  0  0
    4.0569   -0.2274    0.0000 H   0  0  0  0  0  0  0  0  0  0  0  0
    3.6584   -0.9177    0.0000 H   0  0  0  0  0  0  0  0  0  0  0  0
   11.1972    7.5700    0.0000 H   0  0  0  0  0  0  0  0  0  0  0  0
    9.4651    4.5700    0.0000 H   0  0  0  0  0  0  0  0  0  0  0  0
   12.0632    9.0700    0.0000 H   0  0  0  0  0  0  0  0  0  0  0  0
    4.4810   -2.3926    0.0000 H   0  0  0  0  0  0  0  0  0  0  0  0
    4.8796   -1.7023    0.0000 H   0  0  0  0  0  0  0  0  0  0  0  0
   12.9292   13.8100    0.0000 H   0  0  0  0  0  0  0  0  0  0  0  0
    3.1909   -1.7274    0.0000 H   0  0  0  0  0  0  0  0  0  0  0  0
    2.7924   -2.4177    0.0000 H   0  0  0  0  0  0  0  0  0  0  0  0
    5.7456   -8.4177    0.0000 H   0  0  0  0  0  0  0  0  0  0  0  0
    5.3471   -7.7274    0.0000 H   0  0  0  0  0  0  0  0  0  0  0  0
    4.5244   -9.2023    0.0000 H   0  0  0  0  0  0  0  0  0  0  0  0
    4.9230   -9.8926    0.0000 H   0  0  0  0  0  0  0  0  0  0  0  0
    3.6584   -7.7023    0.0000 H   0  0  0  0  0  0  0  0  0  0  0  0
    4.0569   -8.3926    0.0000 H   0  0  0  0  0  0  0  0  0  0  0  0
    6.6116   -9.9177    0.0000 H   0  0  0  0  0  0  0  0  0  0  0  0
    6.2131   -9.2274    0.0000 H   0  0  0  0  0  0  0  0  0  0  0  0
    4.8796   -6.9177    0.0000 H   0  0  0  0  0  0  0  0  0  0  0  0
    4.4810   -6.2274    0.0000 H   0  0  0  0  0  0  0  0  0  0  0  0
    5.3905  -10.7023    0.0000 H   0  0  0  0  0  0  0  0  0  0  0  0
    5.7890  -11.3926    0.0000 H   0  0  0  0  0  0  0  0  0  0  0  0
   14.3322   13.0000    0.0000 H   0  0  0  0  0  0  0  0  0  0  0  0
    3.6150   -3.8926    0.0000 H   0  0  0  0  0  0  0  0  0  0  0  0
    4.0135   -3.2023    0.0000 H   0  0  0  0  0  0  0  0  0  0  0  0
    2.7924   -6.2023    0.0000 H   0  0  0  0  0  0  0  0  0  0  0  0
    3.1909   -6.8926    0.0000 H   0  0  0  0  0  0  0  0  0  0  0  0
    7.4776  -11.4177    0.0000 H   0  0  0  0  0  0  0  0  0  0  0  0
    7.0791  -10.7274    0.0000 H   0  0  0  0  0  0  0  0  0  0  0  0
   11.1972   13.8100    0.0000 H   0  0  0  0  0  0  0  0  0  0  0  0
    4.0135   -5.4177    0.0000 H   0  0  0  0  0  0  0  0  0  0  0  0
    3.6150   -4.7274    0.0000 H   0  0  0  0  0  0  0  0  0  0  0  0
    6.2565  -12.2023    0.0000 H   0  0  0  0  0  0  0  0  0  0  0  0
    6.6550  -12.8926    0.0000 H   0  0  0  0  0  0  0  0  0  0  0  0
    2.0000   -3.5000    0.0000 H   0  0  0  0  0  0  0  0  0  0  0  0
    2.0000   -5.1200    0.0000 H   0  0  0  0  0  0  0  0  0  0  0  0
    8.3437  -12.9177    0.0000 H   0  0  0  0  0  0  0  0  0  0  0  0
    7.9451  -12.2274    0.0000 H   0  0  0  0  0  0  0  0  0  0  0  0
    7.1131  -13.8100    0.0000 H   0  0  0  0  0  0  0  0  0  0  0  0
    7.7331  -14.4300    0.0000 H   0  0  0  0  0  0  0  0  0  0  0  0
    8.3531  -13.8100    0.0000 H   0  0  0  0  0  0  0  0  0  0  0  0
  8  1  1  1  0  0  0
  1 77  1  0  0  0  0
 10  2  1  1  0  0  0
  2 80  1  0  0  0  0
 12  3  1  6  0  0  0
  3 81  1  0  0  0  0
 15  4  1  1  0  0  0
  4 82  1  0  0  0  0
  5 19  1  0  0  0  0
  5 36  1  0  0  0  0
 24  6  1  1  0  0  0
  6107  1  0  0  0  0
  7 36  2  0  0  0  0
  8  9  1  0  0  0  0
  8 11  1  0  0  0  0
  8 47  1  0  0  0  0
  9 10  1  0  0  0  0
  9 48  1  0  0  0  0
  9 49  1  0  0  0  0
 10 13  1  0  0  0  0
 10 50  1  0  0  0  0
 11 12  1  0  0  0  0
 11 51  1  0  0  0  0
 11 52  1  0  0  0  0
 12 14  1  0  0  0  0
 12 53  1  0  0  0  0
 13 15  1  0  0  0  0
 13 54  1  0  0  0  0
 13 55  1  0  0  0  0
 14 16  1  0  0  0  0
 14 56  1  0  0  0  0
 14 57  1  0  0  0  0
 15 17  1  0  0  0  0
 15 58  1  0  0  0  0
 16 18  1  0  0  0  0
 16 59  1  0  0  0  0
 16 60  1  0  0  0  0
 19 17  1  1  0  0  0
 17 61  1  0  0  0  0
 17 62  1  0  0  0  0
 18 20  1  0  0  0  0
 18 63  1  0  0  0  0
 18 64  1  0  0  0  0
 19 24  1  0  0  0  0
 19 65  1  0  0  0  0
 20 21  1  0  0  0  0
 20 66  1  0  0  0  0
 20 67  1  0  0  0  0
 21 22  1  0  0  0  0
 21 68  1  0  0  0  0
 21 69  1  0  0  0  0
 22 23  1  0  0  0  0
 22 70  1  0  0  0  0
 22 71  1  0  0  0  0
 23 25  1  0  0  0  0
 23 72  1  0  0  0  0
 23 73  1  0  0  0  0
 24 28  1  0  0  0  0
 24 74  1  0  0  0  0
 25 26  1  0  0  0  0
 25 75  1  0  0  0  0
 25 76  1  0  0  0  0
 26 27  1  0  0  0  0
 26 78  1  0  0  0  0
 26 79  1  0  0  0  0
 27 29  1  0  0  0  0
 27 83  1  0  0  0  0
 27 84  1  0  0  0  0
 28 37  2  0  0  0  0
 28 85  1  0  0  0  0
 29 38  1  0  0  0  0
 29 86  1  0  0  0  0
 29 87  1  0  0  0  0
 30 31  1  0  0  0  0
 30 32  1  0  0  0  0
 30 88  1  0  0  0  0
 30 89  1  0  0  0  0
 31 33  1  0  0  0  0
 31 90  1  0  0  0  0
 31 91  1  0  0  0  0
 32 34  1  0  0  0  0
 32 92  1  0  0  0  0
 32 93  1  0  0  0  0
 33 35  1  0  0  0  0
 33 94  1  0  0  0  0
 33 95  1  0  0  0  0
 34 39  1  0  0  0  0
 34 96  1  0  0  0  0
 34 97  1  0  0  0  0
 35 40  1  0  0  0  0
 35 98  1  0  0  0  0
 35 99  1  0  0  0  0
 36 37  1  0  0  0  0
 37100  1  0  0  0  0
 38 43  1  0  0  0  0
 38101  1  0  0  0  0
 38102  1  0  0  0  0
 39 41  1  0  0  0  0
 39103  1  0  0  0  0
 39104  1  0  0  0  0
 40 42  1  0  0  0  0
 40105  1  0  0  0  0
 40106  1  0  0  0  0
 41 44  1  0  0  0  0
 41108  1  0  0  0  0
 41109  1  0  0  0  0
 42 45  1  0  0  0  0
 42110  1  0  0  0  0
 42111  1  0  0  0  0
 43 44  2  0  0  0  0
 43112  1  0  0  0  0
 44113  1  0  0  0  0
 45 46  1  0  0  0  0
 45114  1  0  0  0  0
 45115  1  0  0  0  0
 46116  1  0  0  0  0
 46117  1  0  0  0  0
 46118  1  0  0  0  0
M  END
> <PUBCHEM_COMPOUND_CID>
54580079

> <PUBCHEM_COMPOUND_CANONICALIZED>
1

> <PUBCHEM_CACTVS_COMPLEXITY>
755

> <PUBCHEM_CACTVS_HBOND_ACCEPTOR>
7

> <PUBCHEM_CACTVS_HBOND_DONOR>
5

> <PUBCHEM_CACTVS_ROTATABLE_BOND>
32

> <PUBCHEM_CACTVS_SUBSKEYS>
AAADcfB8OAAAAAAAAAAAAAAAAAAAAAAAAAAgAAAAAAAAAAAAAAAAGgAACAAACBSggAICCAAABgCIACDSCAAAAAAgAAAICAAAAEgBFAIAIQACUAAFwAALMYPA4KwAAAAAAAAAAAAAAAAAAAAAAAAAAAAAAA==

> <PUBCHEM_IUPAC_OPENEYE_NAME>
(2S,3S)-3-hydroxy-2-[(Z,2S,4S,6S,8R)-2,4,6,8-tetrahydroxytetratriacont-21-enyl]-2,3-dihydropyran-6-one

> <PUBCHEM_IUPAC_CAS_NAME>
(2S,3S)-3-hydroxy-2-[(Z,2S,4S,6S,8R)-2,4,6,8-tetrahydroxytetratriacont-21-enyl]-2,3-dihydropyran-6-one

> <PUBCHEM_IUPAC_NAME_MARKUP>
(2<I>S</I>,3<I>S</I>)-3-hydroxy-2-[(<I>Z</I>,2<I>S</I>,4<I>S</I>,6<I>S</I>,8<I>R</I>)-2,4,6,8-tetrahydroxytetratriacont-21-enyl]-2,3-dihydropyran-6-one

> <PUBCHEM_IUPAC_NAME>
(2S,3S)-3-hydroxy-2-[(Z,2S,4S,6S,8R)-2,4,6,8-tetrahydroxytetratriacont-21-enyl]-2,3-dihydropyran-6-one

> <PUBCHEM_IUPAC_SYSTEMATIC_NAME>
(2S,3S)-3-oxidanyl-2-[(Z,2S,4S,6S,8R)-2,4,6,8-tetrakis(oxidanyl)tetratriacont-21-enyl]-2,3-dihydropyran-6-one

> <PUBCHEM_IUPAC_TRADITIONAL_NAME>
(2S,3S)-3-hydroxy-2-[(Z,2S,4S,6S,8R)-2,4,6,8-tetrahydroxytetratriacont-21-enyl]-2,3-dihydropyran-6-one

> <PUBCHEM_IUPAC_INCHI>
InChI=1S/C39H72O7/c1-2-3-4-5-6-7-8-9-10-11-12-13-14-15-16-17-18-19-20-21-22-23-24-25-26-33(40)29-34(41)30-35(42)31-36(43)32-38-37(44)27-28-39(45)46-38/h13-14,27-28,33-38,40-44H,2-12,15-26,29-32H2,1H3/b14-13-/t33-,34+,35+,36+,37+,38+/m1/s1

> <PUBCHEM_IUPAC_INCHIKEY>
IYFVWZYAWMVWIB-ILJMMYCOSA-N

> <PUBCHEM_XLOGP3_AA>
11.4

> <PUBCHEM_EXACT_MASS>
652.52780463

> <PUBCHEM_MOLECULAR_FORMULA>
C39H72O7

> <PUBCHEM_MOLECULAR_WEIGHT>
653.0

> <PUBCHEM_OPENEYE_CAN_SMILES>
CCCCCCCCCCCCC=CCCCCCCCCCCCCC(CC(CC(CC(CC1C(C=CC(=O)O1)O)O)O)O)O

> <PUBCHEM_OPENEYE_ISO_SMILES>
CCCCCCCCCCCC/C=C\CCCCCCCCCCCC[C@H](C[C@@H](C[C@@H](C[C@@H](C[C@H]1[C@H](C=CC(=O)O1)O)O)O)O)O

> <PUBCHEM_CACTVS_TPSA>
127

> <PUBCHEM_MONOISOTOPIC_WEIGHT>
652.52780463

> <PUBCHEM_TOTAL_CHARGE>
0

> <PUBCHEM_HEAVY_ATOM_COUNT>
46

> <PUBCHEM_ATOM_DEF_STEREO_COUNT>
6

> <PUBCHEM_ATOM_UDEF_STEREO_COUNT>
0

> <PUBCHEM_BOND_DEF_STEREO_COUNT>
1

> <PUBCHEM_BOND_UDEF_STEREO_COUNT>
0

> <PUBCHEM_ISOTOPIC_ATOM_COUNT>
0

> <PUBCHEM_COMPONENT_COUNT>
1

> <PUBCHEM_CACTVS_TAUTO_COUNT>
-1

> <PUBCHEM_COORDINATE_TYPE>
1
5
255

> <PUBCHEM_BONDANNOTATIONS>
8  1  5
19  17  5
10  2  5
12  3  6
15  4  5
24  6  5

$$$$
