44437888
  -OEChem-05162310202D

 83 87  0     1  0  0  0  0  0999 V2000
   10.7090   -3.7523    0.0000 O   0  0  0  0  0  0  0  0  0  0  0  0
    8.1003    0.7723    0.0000 N   0  0  0  0  0  0  0  0  0  0  0  0
    2.8602    0.7654    0.0000 N   0  0  3  0  0  0  0  0  0  0  0  0
   11.5923   -2.2624    0.0000 N   0  0  0  0  0  0  0  0  0  0  0  0
    7.2343    1.2723    0.0000 C   0  0  1  0  0  0  0  0  0  0  0  0
    8.9663    1.2723    0.0000 C   0  0  1  0  0  0  0  0  0  0  0  0
    3.7702    1.2723    0.0000 C   0  0  2  0  0  0  0  0  0  0  0  0
   10.6984   -1.7277    0.0000 C   0  0  2  0  0  0  0  0  0  0  0  0
    5.5022    1.2723    0.0000 C   0  0  0  0  0  0  0  0  0  0  0  0
    4.6362    0.7723    0.0000 C   0  0  0  0  0  0  0  0  0  0  0  0
    9.8324   -0.2277    0.0000 C   0  0  0  0  0  0  0  0  0  0  0  0
    6.3683    0.7723    0.0000 C   0  0  0  0  0  0  0  0  0  0  0  0
   10.6984   -0.7277    0.0000 C   0  0  0  0  0  0  0  0  0  0  0  0
    9.8324    0.7723    0.0000 C   0  0  0  0  0  0  0  0  0  0  0  0
    4.6362    2.7723    0.0000 C   0  0  2  0  0  0  0  0  0  0  0  0
    3.7702    2.2723    0.0000 C   0  0  0  0  0  0  0  0  0  0  0  0
    8.9663   -1.7277    0.0000 C   0  0  2  0  0  0  0  0  0  0  0  0
    5.5022    2.2723    0.0000 C   0  0  0  0  0  0  0  0  0  0  0  0
    9.8324   -2.2277    0.0000 C   0  0  0  0  0  0  0  0  0  0  0  0
    8.9663   -0.7277    0.0000 C   0  0  0  0  0  0  0  0  0  0  0  0
    7.2343    2.2723    0.0000 C   0  0  0  0  0  0  0  0  0  0  0  0
    8.9663    2.2723    0.0000 C   0  0  0  0  0  0  0  0  0  0  0  0
    8.1003    2.7723    0.0000 C   0  0  0  0  0  0  0  0  0  0  0  0
    4.6523   -0.2692    0.0000 C   0  0  0  0  0  0  0  0  0  0  0  0
   11.5923   -0.1931    0.0000 C   0  0  0  0  0  0  0  0  0  0  0  0
    3.7542   -0.7970    0.0000 C   0  0  0  0  0  0  0  0  0  0  0  0
    2.8522   -0.2762    0.0000 C   0  0  0  0  0  0  0  0  0  0  0  0
   12.4984   -0.7069    0.0000 C   0  0  0  0  0  0  0  0  0  0  0  0
   12.4984   -1.7485    0.0000 C   0  0  0  0  0  0  0  0  0  0  0  0
    4.6362    3.7723    0.0000 C   0  0  0  0  0  0  0  0  0  0  0  0
    8.1003   -2.2277    0.0000 C   0  0  0  0  0  0  0  0  0  0  0  0
    2.0000    1.2754    0.0000 C   0  0  0  0  0  0  0  0  0  0  0  0
   11.5808   -3.2623    0.0000 C   0  0  0  0  0  0  0  0  0  0  0  0
   12.4410   -3.7723    0.0000 C   0  0  0  0  0  0  0  0  0  0  0  0
    7.2343    0.6523    0.0000 H   0  0  0  0  0  0  0  0  0  0  0  0
    8.9663    0.6523    0.0000 H   0  0  0  0  0  0  0  0  0  0  0  0
    3.0374    1.7030    0.0000 H   0  0  0  0  0  0  0  0  0  0  0  0
   10.6918   -2.5777    0.0000 H   0  0  0  0  0  0  0  0  0  0  0  0
    5.9697    0.2973    0.0000 H   0  0  0  0  0  0  0  0  0  0  0  0
    6.7668    0.2973    0.0000 H   0  0  0  0  0  0  0  0  0  0  0  0
   10.4429    0.6646    0.0000 H   0  0  0  0  0  0  0  0  0  0  0  0
   10.0444    1.3549    0.0000 H   0  0  0  0  0  0  0  0  0  0  0  0
    4.0993    3.0823    0.0000 H   0  0  0  0  0  0  0  0  0  0  0  0
    3.5581    2.8549    0.0000 H   0  0  0  0  0  0  0  0  0  0  0  0
    3.1596    2.1646    0.0000 H   0  0  0  0  0  0  0  0  0  0  0  0
    8.4294   -1.4177    0.0000 H   0  0  0  0  0  0  0  0  0  0  0  0
    6.1128    2.1646    0.0000 H   0  0  0  0  0  0  0  0  0  0  0  0
    5.7143    2.8549    0.0000 H   0  0  0  0  0  0  0  0  0  0  0  0
    9.4338   -2.7027    0.0000 H   0  0  0  0  0  0  0  0  0  0  0  0
   10.2309   -2.7027    0.0000 H   0  0  0  0  0  0  0  0  0  0  0  0
    8.7543   -0.1451    0.0000 H   0  0  0  0  0  0  0  0  0  0  0  0
    8.3558   -0.8354    0.0000 H   0  0  0  0  0  0  0  0  0  0  0  0
    7.0222    2.8549    0.0000 H   0  0  0  0  0  0  0  0  0  0  0  0
    6.6237    2.1646    0.0000 H   0  0  0  0  0  0  0  0  0  0  0  0
    9.5769    2.1646    0.0000 H   0  0  0  0  0  0  0  0  0  0  0  0
    9.1784    2.8549    0.0000 H   0  0  0  0  0  0  0  0  0  0  0  0
    8.1003    0.1523    0.0000 H   0  0  0  0  0  0  0  0  0  0  0  0
    8.4988    3.2472    0.0000 H   0  0  0  0  0  0  0  0  0  0  0  0
    7.7018    3.2472    0.0000 H   0  0  0  0  0  0  0  0  0  0  0  0
    4.8703   -0.8496    0.0000 H   0  0  0  0  0  0  0  0  0  0  0  0
    5.2614   -0.1537    0.0000 H   0  0  0  0  0  0  0  0  0  0  0  0
   11.9860    0.2860    0.0000 H   0  0  0  0  0  0  0  0  0  0  0  0
   11.1877    0.2767    0.0000 H   0  0  0  0  0  0  0  0  0  0  0  0
    3.3569   -1.2729    0.0000 H   0  0  0  0  0  0  0  0  0  0  0  0
    4.1552   -1.2699    0.0000 H   0  0  0  0  0  0  0  0  0  0  0  0
    2.2421   -0.1654    0.0000 H   0  0  0  0  0  0  0  0  0  0  0  0
    2.6386   -0.8582    0.0000 H   0  0  0  0  0  0  0  0  0  0  0  0
   13.1093   -0.8130    0.0000 H   0  0  0  0  0  0  0  0  0  0  0  0
   12.7075   -0.1232    0.0000 H   0  0  0  0  0  0  0  0  0  0  0  0
   12.7075   -2.3322    0.0000 H   0  0  0  0  0  0  0  0  0  0  0  0
   13.1093   -1.6424    0.0000 H   0  0  0  0  0  0  0  0  0  0  0  0
    5.2562    3.7723    0.0000 H   0  0  0  0  0  0  0  0  0  0  0  0
    4.6362    4.3923    0.0000 H   0  0  0  0  0  0  0  0  0  0  0  0
    4.0162    3.7723    0.0000 H   0  0  0  0  0  0  0  0  0  0  0  0
    7.7903   -1.6908    0.0000 H   0  0  0  0  0  0  0  0  0  0  0  0
    7.5634   -2.5377    0.0000 H   0  0  0  0  0  0  0  0  0  0  0  0
    8.4103   -2.7646    0.0000 H   0  0  0  0  0  0  0  0  0  0  0  0
    2.3162    1.8087    0.0000 H   0  0  0  0  0  0  0  0  0  0  0  0
    1.4667    1.5916    0.0000 H   0  0  0  0  0  0  0  0  0  0  0  0
    1.6838    0.7421    0.0000 H   0  0  0  0  0  0  0  0  0  0  0  0
   12.1248   -4.3056    0.0000 H   0  0  0  0  0  0  0  0  0  0  0  0
   12.9743   -4.0885    0.0000 H   0  0  0  0  0  0  0  0  0  0  0  0
   12.7571   -3.2390    0.0000 H   0  0  0  0  0  0  0  0  0  0  0  0
  1 33  2  0  0  0  0
  2  5  1  0  0  0  0
  2  6  1  0  0  0  0
  2 57  1  0  0  0  0
  3  7  1  0  0  0  0
  3 27  1  0  0  0  0
  3 32  1  0  0  0  0
  4  8  1  0  0  0  0
  4 29  1  0  0  0  0
  4 33  1  0  0  0  0
  5 12  1  1  0  0  0
  5 21  1  0  0  0  0
  5 35  1  0  0  0  0
  6 14  1  6  0  0  0
  6 22  1  0  0  0  0
  6 36  1  0  0  0  0
  7 10  1  0  0  0  0
  7 16  1  0  0  0  0
  7 37  1  6  0  0  0
  8 13  1  0  0  0  0
  8 19  1  0  0  0  0
  8 38  1  6  0  0  0
  9 10  2  0  0  0  0
  9 12  1  0  0  0  0
  9 18  1  0  0  0  0
 10 24  1  0  0  0  0
 11 13  2  0  0  0  0
 11 14  1  0  0  0  0
 11 20  1  0  0  0  0
 12 39  1  0  0  0  0
 12 40  1  0  0  0  0
 13 25  1  0  0  0  0
 14 41  1  0  0  0  0
 14 42  1  0  0  0  0
 15 16  1  0  0  0  0
 15 18  1  0  0  0  0
 15 30  1  1  0  0  0
 15 43  1  0  0  0  0
 16 44  1  0  0  0  0
 16 45  1  0  0  0  0
 17 19  1  0  0  0  0
 17 20  1  0  0  0  0
 17 31  1  1  0  0  0
 17 46  1  0  0  0  0
 18 47  1  0  0  0  0
 18 48  1  0  0  0  0
 19 49  1  0  0  0  0
 19 50  1  0  0  0  0
 20 51  1  0  0  0  0
 20 52  1  0  0  0  0
 21 23  1  0  0  0  0
 21 53  1  0  0  0  0
 21 54  1  0  0  0  0
 22 23  1  0  0  0  0
 22 55  1  0  0  0  0
 22 56  1  0  0  0  0
 23 58  1  0  0  0  0
 23 59  1  0  0  0  0
 24 26  1  0  0  0  0
 24 60  1  0  0  0  0
 24 61  1  0  0  0  0
 25 28  1  0  0  0  0
 25 62  1  0  0  0  0
 25 63  1  0  0  0  0
 26 27  1  0  0  0  0
 26 64  1  0  0  0  0
 26 65  1  0  0  0  0
 27 66  1  0  0  0  0
 27 67  1  0  0  0  0
 28 29  1  0  0  0  0
 28 68  1  0  0  0  0
 28 69  1  0  0  0  0
 29 70  1  0  0  0  0
 29 71  1  0  0  0  0
 30 72  1  0  0  0  0
 30 73  1  0  0  0  0
 30 74  1  0  0  0  0
 31 75  1  0  0  0  0
 31 76  1  0  0  0  0
 31 77  1  0  0  0  0
 32 78  1  0  0  0  0
 32 79  1  0  0  0  0
 32 80  1  0  0  0  0
 33 34  1  0  0  0  0
 34 81  1  0  0  0  0
 34 82  1  0  0  0  0
 34 83  1  0  0  0  0
M  END
> <PUBCHEM_COMPOUND_CID>
44437888

> <PUBCHEM_COMPOUND_CANONICALIZED>
1

> <PUBCHEM_CACTVS_COMPLEXITY>
829

> <PUBCHEM_CACTVS_HBOND_ACCEPTOR>
3

> <PUBCHEM_CACTVS_HBOND_DONOR>
1

> <PUBCHEM_CACTVS_ROTATABLE_BOND>
4

> <PUBCHEM_CACTVS_SUBSKEYS>
AAADcfB7IAAAAAAAAAAAAAAAAAAAAAAAAAAsWLECAAAAAACAAAAAHgAQAAAADSjBgAQCAAPAAACIAgFQEACAAAAgAAAACIAIAAgAAAIAgAAEAAAAlgCIAAMQgMAOAAAAAAAAAAAAAAAAAAAAAAAAAAAAAA==

> <PUBCHEM_IUPAC_OPENEYE_NAME>
1-[(7S,8aS)-5-[[(2R,6R)-6-[[(7S,8aS)-1,7-dimethyl-3,4,6,7,8,8a-hexahydro-2H-quinolin-5-yl]methyl]-2-piperidyl]methyl]-7-methyl-3,4,6,7,8,8a-hexahydro-2H-quinolin-1-yl]ethanone

> <PUBCHEM_IUPAC_CAS_NAME>
1-[(7S,8aS)-5-[[(2R,6R)-6-[[(7S,8aS)-1,7-dimethyl-3,4,6,7,8,8a-hexahydro-2H-quinolin-5-yl]methyl]-2-piperidinyl]methyl]-7-methyl-3,4,6,7,8,8a-hexahydro-2H-quinolin-1-yl]ethanone

> <PUBCHEM_IUPAC_NAME_MARKUP>
1-[(7<I>S</I>,8<I>a</I><I>S</I>)-5-[[(2<I>R</I>,6<I>R</I>)-6-[[(7<I>S</I>,8<I>a</I><I>S</I>)-1,7-dimethyl-3,4,6,7,8,8<I>a</I>-hexahydro-2<I>H</I>-quinolin-5-yl]methyl]piperidin-2-yl]methyl]-7-methyl-3,4,6,7,8,8<I>a</I>-hexahydro-2<I>H</I>-quinolin-1-yl]ethanone

> <PUBCHEM_IUPAC_NAME>
1-[(7S,8aS)-5-[[(2R,6R)-6-[[(7S,8aS)-1,7-dimethyl-3,4,6,7,8,8a-hexahydro-2H-quinolin-5-yl]methyl]piperidin-2-yl]methyl]-7-methyl-3,4,6,7,8,8a-hexahydro-2H-quinolin-1-yl]ethanone

> <PUBCHEM_IUPAC_SYSTEMATIC_NAME>
1-[(7S,8aS)-5-[[(2R,6R)-6-[[(7S,8aS)-1,7-dimethyl-3,4,6,7,8,8a-hexahydro-2H-quinolin-5-yl]methyl]piperidin-2-yl]methyl]-7-methyl-3,4,6,7,8,8a-hexahydro-2H-quinolin-1-yl]ethanone

> <PUBCHEM_IUPAC_TRADITIONAL_NAME>
1-[(7S,8aS)-5-[[(2R,6R)-6-[[(7S,8aS)-1,7-dimethyl-3,4,6,7,8,8a-hexahydro-2H-quinolin-5-yl]methyl]-2-piperidyl]methyl]-7-methyl-3,4,6,7,8,8a-hexahydro-2H-quinolin-1-yl]ethanone

> <PUBCHEM_IUPAC_INCHI>
InChI=1S/C30H49N3O/c1-20-14-23(27-10-6-12-32(4)29(27)16-20)18-25-8-5-9-26(31-25)19-24-15-21(2)17-30-28(24)11-7-13-33(30)22(3)34/h20-21,25-26,29-31H,5-19H2,1-4H3/t20-,21-,25+,26+,29-,30-/m0/s1

> <PUBCHEM_IUPAC_INCHIKEY>
GNBIIUGCLQZEQB-JIWCGRIKSA-N

> <PUBCHEM_XLOGP3_AA>
3.6

> <PUBCHEM_EXACT_MASS>
467.38756320

> <PUBCHEM_MOLECULAR_FORMULA>
C30H49N3O

> <PUBCHEM_MOLECULAR_WEIGHT>
467.7

> <PUBCHEM_OPENEYE_CAN_SMILES>
CC1CC2C(=C(C1)CC3CCCC(N3)CC4=C5CCCN(C5CC(C4)C)C(=O)C)CCCN2C

> <PUBCHEM_OPENEYE_ISO_SMILES>
C[C@@H]1C[C@H]2C(=C(C1)C[C@H]3CCC[C@@H](N3)CC4=C5CCCN([C@H]5C[C@H](C4)C)C(=O)C)CCCN2C

> <PUBCHEM_CACTVS_TPSA>
35.6

> <PUBCHEM_MONOISOTOPIC_WEIGHT>
467.38756320

> <PUBCHEM_TOTAL_CHARGE>
0

> <PUBCHEM_HEAVY_ATOM_COUNT>
34

> <PUBCHEM_ATOM_DEF_STEREO_COUNT>
6

> <PUBCHEM_ATOM_UDEF_STEREO_COUNT>
0

> <PUBCHEM_BOND_DEF_STEREO_COUNT>
0

> <PUBCHEM_BOND_UDEF_STEREO_COUNT>
0

> <PUBCHEM_ISOTOPIC_ATOM_COUNT>
0

> <PUBCHEM_COMPONENT_COUNT>
1

> <PUBCHEM_CACTVS_TAUTO_COUNT>
-1

> <PUBCHEM_COORDINATE_TYPE>
1
5
255

> <PUBCHEM_BONDANNOTATIONS>
15  30  5
17  31  5
5  12  5
6  14  6
7  37  6
8  38  6

$$$$
