71524396
  -OEChem-05162310202D

 50 53  0     1  0  0  0  0  0999 V2000
    2.0863    2.0240    0.0000 O   0  0  0  0  0  0  0  0  0  0  0  0
    3.8015    2.2651    0.0000 O   0  0  0  0  0  0  0  0  0  0  0  0
    4.9406   -1.1962    0.0000 C   0  0  2  0  0  0  0  0  0  0  0  0
    4.7314   -2.1680    0.0000 C   0  0  2  0  0  0  0  0  0  0  0  0
    4.0746   -0.6962    0.0000 C   0  0  2  0  0  0  0  0  0  0  0  0
    5.8066   -0.6962    0.0000 C   0  0  1  0  0  0  0  0  0  0  0  0
    5.6043   -1.6770    0.0000 C   0  0  1  0  0  0  0  0  0  0  0  0
    3.3376   -1.3632    0.0000 C   0  0  1  0  0  0  0  0  0  0  0  0
    3.7427   -2.2710    0.0000 C   0  0  0  0  0  0  0  0  0  0  0  0
    4.0746    0.3038    0.0000 C   0  0  1  0  0  0  0  0  0  0  0  0
    5.8066    0.3038    0.0000 C   0  0  0  0  0  0  0  0  0  0  0  0
    6.4117   -2.2669    0.0000 C   0  0  0  0  0  0  0  0  0  0  0  0
    4.9406    0.8038    0.0000 C   0  0  0  0  0  0  0  0  0  0  0  0
    3.1526    0.6591    0.0000 C   0  0  1  0  0  0  0  0  0  0  0  0
    2.4543   -0.9204    0.0000 C   0  0  0  0  0  0  0  0  0  0  0  0
    2.3643    0.0635    0.0000 C   0  0  0  0  0  0  0  0  0  0  0  0
    7.3264   -1.8625    0.0000 C   0  0  0  0  0  0  0  0  0  0  0  0
    3.0135    1.6494    0.0000 C   0  0  0  0  0  0  0  0  0  0  0  0
    8.1338   -2.4524    0.0000 C   0  0  0  0  0  0  0  0  0  0  0  0
    9.0484   -2.0481    0.0000 C   0  0  0  0  0  0  0  0  0  0  0  0
    9.8559   -2.6380    0.0000 C   0  0  0  0  0  0  0  0  0  0  0  0
   10.7705   -2.2336    0.0000 C   0  0  0  0  0  0  0  0  0  0  0  0
    4.2895   -1.7425    0.0000 H   0  0  0  0  0  0  0  0  0  0  0  0
    4.9892   -2.9779    0.0000 H   0  0  0  0  0  0  0  0  0  0  0  0
    3.7841   -1.4950    0.0000 H   0  0  0  0  0  0  0  0  0  0  0  0
    6.6522   -0.7825    0.0000 H   0  0  0  0  0  0  0  0  0  0  0  0
    5.5675   -2.2959    0.0000 H   0  0  0  0  0  0  0  0  0  0  0  0
    2.7232   -1.9506    0.0000 H   0  0  0  0  0  0  0  0  0  0  0  0
    3.1531   -2.4628    0.0000 H   0  0  0  0  0  0  0  0  0  0  0  0
    3.8714   -2.8775    0.0000 H   0  0  0  0  0  0  0  0  0  0  0  0
    4.0085    1.1513    0.0000 H   0  0  0  0  0  0  0  0  0  0  0  0
    6.3436    0.6138    0.0000 H   0  0  0  0  0  0  0  0  0  0  0  0
    5.9646   -2.6964    0.0000 H   0  0  0  0  0  0  0  0  0  0  0  0
    6.7571   -2.7818    0.0000 H   0  0  0  0  0  0  0  0  0  0  0  0
    4.9406    1.4238    0.0000 H   0  0  0  0  0  0  0  0  0  0  0  0
    2.5797    0.8960    0.0000 H   0  0  0  0  0  0  0  0  0  0  0  0
    1.9421   -1.2698    0.0000 H   0  0  0  0  0  0  0  0  0  0  0  0
    1.7973    0.3142    0.0000 H   0  0  0  0  0  0  0  0  0  0  0  0
    7.7735   -1.4330    0.0000 H   0  0  0  0  0  0  0  0  0  0  0  0
    6.9810   -1.3476    0.0000 H   0  0  0  0  0  0  0  0  0  0  0  0
    7.6867   -2.8819    0.0000 H   0  0  0  0  0  0  0  0  0  0  0  0
    8.4792   -2.9673    0.0000 H   0  0  0  0  0  0  0  0  0  0  0  0
    9.4956   -1.6186    0.0000 H   0  0  0  0  0  0  0  0  0  0  0  0
    8.7031   -1.5332    0.0000 H   0  0  0  0  0  0  0  0  0  0  0  0
    2.0000    2.6380    0.0000 H   0  0  0  0  0  0  0  0  0  0  0  0
    9.4088   -3.0675    0.0000 H   0  0  0  0  0  0  0  0  0  0  0  0
   10.2013   -3.1529    0.0000 H   0  0  0  0  0  0  0  0  0  0  0  0
   11.0212   -2.8007    0.0000 H   0  0  0  0  0  0  0  0  0  0  0  0
   11.3376   -1.9829    0.0000 H   0  0  0  0  0  0  0  0  0  0  0  0
   10.5198   -1.6666    0.0000 H   0  0  0  0  0  0  0  0  0  0  0  0
  1 18  1  0  0  0  0
  1 45  1  0  0  0  0
  2 18  2  0  0  0  0
  3  4  1  0  0  0  0
  3  5  1  0  0  0  0
  3  6  1  0  0  0  0
  3 23  1  1  0  0  0
  4  7  1  0  0  0  0
  4  9  1  0  0  0  0
  4 24  1  1  0  0  0
  5  8  1  0  0  0  0
  5 10  1  0  0  0  0
  5 25  1  1  0  0  0
  6  7  1  0  0  0  0
  6 11  1  0  0  0  0
  6 26  1  1  0  0  0
  7 12  1  1  0  0  0
  7 27  1  0  0  0  0
  8  9  1  0  0  0  0
  8 15  1  0  0  0  0
  8 28  1  6  0  0  0
  9 29  1  0  0  0  0
  9 30  1  0  0  0  0
 10 13  1  0  0  0  0
 10 14  1  0  0  0  0
 10 31  1  1  0  0  0
 11 13  2  0  0  0  0
 11 32  1  0  0  0  0
 12 17  1  0  0  0  0
 12 33  1  0  0  0  0
 12 34  1  0  0  0  0
 13 35  1  0  0  0  0
 14 16  1  0  0  0  0
 14 18  1  1  0  0  0
 14 36  1  0  0  0  0
 15 16  2  0  0  0  0
 15 37  1  0  0  0  0
 16 38  1  0  0  0  0
 17 19  1  0  0  0  0
 17 39  1  0  0  0  0
 17 40  1  0  0  0  0
 19 20  1  0  0  0  0
 19 41  1  0  0  0  0
 19 42  1  0  0  0  0
 20 21  1  0  0  0  0
 20 43  1  0  0  0  0
 20 44  1  0  0  0  0
 21 22  1  0  0  0  0
 21 46  1  0  0  0  0
 21 47  1  0  0  0  0
 22 48  1  0  0  0  0
 22 49  1  0  0  0  0
 22 50  1  0  0  0  0
M  END
> <PUBCHEM_COMPOUND_CID>
71524396

> <PUBCHEM_COMPOUND_CANONICALIZED>
1

> <PUBCHEM_CACTVS_COMPLEXITY>
506

> <PUBCHEM_CACTVS_HBOND_ACCEPTOR>
2

> <PUBCHEM_CACTVS_HBOND_DONOR>
1

> <PUBCHEM_CACTVS_ROTATABLE_BOND>
6

> <PUBCHEM_CACTVS_SUBSKEYS>
AAADceB4MAAAAAAAAAAAAAAAAABgAYAAAAAgQAAABgAQAECAAAAAGgAACAAADQCAgAACCAAAAgCIACDSCAAAAAAgAAAICAEAAAgAABIAAQAAQAAEwAAIAAOIyPCOgAAAAAAAAAAAAAAAAAAAAQAACAAAAA==

> <PUBCHEM_IUPAC_OPENEYE_NAME>
(1S,2S,3R,6R,7R,10S,11S,12S)-2-hexyltetracyclo[8.2.1.03,12.06,11]trideca-4,8-diene-7-carboxylic acid

> <PUBCHEM_IUPAC_CAS_NAME>
(1S,2S,3R,6R,7R,10S,11S,12S)-2-hexyl-7-tetracyclo[8.2.1.03,12.06,11]trideca-4,8-dienecarboxylic acid

> <PUBCHEM_IUPAC_NAME_MARKUP>
(1<I>S</I>,2<I>S</I>,3<I>R</I>,6<I>R</I>,7<I>R</I>,10<I>S</I>,11<I>S</I>,12<I>S</I>)-2-hexyltetracyclo[8.2.1.0<SUP>3,12</SUP>.0<SUP>6,11</SUP>]trideca-4,8-diene-7-carboxylic acid

> <PUBCHEM_IUPAC_NAME>
(1S,2S,3R,6R,7R,10S,11S,12S)-2-hexyltetracyclo[8.2.1.03,12.06,11]trideca-4,8-diene-7-carboxylic acid

> <PUBCHEM_IUPAC_SYSTEMATIC_NAME>
(1S,2S,3R,6R,7R,10S,11S,12S)-2-hexyltetracyclo[8.2.1.03,12.06,11]trideca-4,8-diene-7-carboxylic acid

> <PUBCHEM_IUPAC_TRADITIONAL_NAME>
(1S,2S,3R,6R,7R,10S,11S,12S)-2-hexyltetracyclo[8.2.1.03,12.06,11]trideca-4,8-diene-7-carboxylic acid

> <PUBCHEM_IUPAC_INCHI>
InChI=1S/C20H28O2/c1-2-3-4-5-6-13-14-9-10-15-16(20(21)22)8-7-12-11-17(13)19(14)18(12)15/h7-10,12-19H,2-6,11H2,1H3,(H,21,22)/t12-,13-,14-,15+,16-,17+,18-,19-/m1/s1

> <PUBCHEM_IUPAC_INCHIKEY>
XEQNTXMZKIDUJA-AQCKIFKESA-N

> <PUBCHEM_XLOGP3_AA>
5.5

> <PUBCHEM_EXACT_MASS>
300.208930132

> <PUBCHEM_MOLECULAR_FORMULA>
C20H28O2

> <PUBCHEM_MOLECULAR_WEIGHT>
300.4

> <PUBCHEM_OPENEYE_CAN_SMILES>
CCCCCCC1C2CC3C=CC(C4C3C2C1C=C4)C(=O)O

> <PUBCHEM_OPENEYE_ISO_SMILES>
CCCCCC[C@H]1[C@@H]2C[C@H]3C=C[C@H]([C@H]4[C@@H]3[C@@H]2[C@@H]1C=C4)C(=O)O

> <PUBCHEM_CACTVS_TPSA>
37.3

> <PUBCHEM_MONOISOTOPIC_WEIGHT>
300.208930132

> <PUBCHEM_TOTAL_CHARGE>
0

> <PUBCHEM_HEAVY_ATOM_COUNT>
22

> <PUBCHEM_ATOM_DEF_STEREO_COUNT>
8

> <PUBCHEM_ATOM_UDEF_STEREO_COUNT>
0

> <PUBCHEM_BOND_DEF_STEREO_COUNT>
0

> <PUBCHEM_BOND_UDEF_STEREO_COUNT>
0

> <PUBCHEM_ISOTOPIC_ATOM_COUNT>
0

> <PUBCHEM_COMPONENT_COUNT>
1

> <PUBCHEM_CACTVS_TAUTO_COUNT>
-1

> <PUBCHEM_COORDINATE_TYPE>
1
5
255

> <PUBCHEM_BONDANNOTATIONS>
10  31  5
14  18  5
3  23  5
4  24  5
5  25  5
6  26  5
7  12  5
8  28  6

$$$$
