71521967
  -OEChem-05162308242D

 51 54  0     1  0  0  0  0  0999 V2000
    2.5587   -1.4840    0.0000 O   0  0  0  0  0  0  0  0  0  0  0  0
    3.0167    2.0240    0.0000 O   0  0  0  0  0  0  0  0  0  0  0  0
    4.7319    2.2651    0.0000 O   0  0  0  0  0  0  0  0  0  0  0  0
    5.8711   -1.1962    0.0000 C   0  0  2  0  0  0  0  0  0  0  0  0
    5.6619   -2.1680    0.0000 C   0  0  2  0  0  0  0  0  0  0  0  0
    5.0050   -0.6962    0.0000 C   0  0  2  0  0  0  0  0  0  0  0  0
    6.7371   -0.6962    0.0000 C   0  0  1  0  0  0  0  0  0  0  0  0
    6.5347   -1.6770    0.0000 C   0  0  1  0  0  0  0  0  0  0  0  0
    4.2680   -1.3632    0.0000 C   0  0  1  0  0  0  0  0  0  0  0  0
    4.6731   -2.2710    0.0000 C   0  0  0  0  0  0  0  0  0  0  0  0
    5.0050    0.3038    0.0000 C   0  0  1  0  0  0  0  0  0  0  0  0
    7.3422   -2.2669    0.0000 C   0  0  0  0  0  0  0  0  0  0  0  0
    6.7371    0.3038    0.0000 C   0  0  0  0  0  0  0  0  0  0  0  0
    3.3848   -0.9204    0.0000 C   0  0  1  0  0  0  0  0  0  0  0  0
    5.8711    0.8038    0.0000 C   0  0  0  0  0  0  0  0  0  0  0  0
    4.0831    0.6591    0.0000 C   0  0  0  0  0  0  0  0  0  0  0  0
    3.2948    0.0635    0.0000 C   0  0  0  0  0  0  0  0  0  0  0  0
    8.2568   -1.8625    0.0000 C   0  0  0  0  0  0  0  0  0  0  0  0
    3.9439    1.6494    0.0000 C   0  0  0  0  0  0  0  0  0  0  0  0
    9.0643   -2.4524    0.0000 C   0  0  0  0  0  0  0  0  0  0  0  0
    9.9789   -2.0481    0.0000 C   0  0  0  0  0  0  0  0  0  0  0  0
   10.7864   -2.6380    0.0000 C   0  0  0  0  0  0  0  0  0  0  0  0
   11.7010   -2.2336    0.0000 C   0  0  0  0  0  0  0  0  0  0  0  0
    5.2199   -1.7425    0.0000 H   0  0  0  0  0  0  0  0  0  0  0  0
    5.9196   -2.9779    0.0000 H   0  0  0  0  0  0  0  0  0  0  0  0
    4.7146   -1.4950    0.0000 H   0  0  0  0  0  0  0  0  0  0  0  0
    7.5827   -0.7825    0.0000 H   0  0  0  0  0  0  0  0  0  0  0  0
    7.1132   -1.4538    0.0000 H   0  0  0  0  0  0  0  0  0  0  0  0
    3.6536   -1.9506    0.0000 H   0  0  0  0  0  0  0  0  0  0  0  0
    4.0835   -2.4628    0.0000 H   0  0  0  0  0  0  0  0  0  0  0  0
    4.8019   -2.8775    0.0000 H   0  0  0  0  0  0  0  0  0  0  0  0
    4.9389    1.1513    0.0000 H   0  0  0  0  0  0  0  0  0  0  0  0
    6.8951   -2.6964    0.0000 H   0  0  0  0  0  0  0  0  0  0  0  0
    7.6876   -2.7818    0.0000 H   0  0  0  0  0  0  0  0  0  0  0  0
    7.2740    0.6138    0.0000 H   0  0  0  0  0  0  0  0  0  0  0  0
    2.8240   -0.6561    0.0000 H   0  0  0  0  0  0  0  0  0  0  0  0
    5.8711    1.4238    0.0000 H   0  0  0  0  0  0  0  0  0  0  0  0
    2.7277    0.3142    0.0000 H   0  0  0  0  0  0  0  0  0  0  0  0
    8.7039   -1.4330    0.0000 H   0  0  0  0  0  0  0  0  0  0  0  0
    7.9114   -1.3476    0.0000 H   0  0  0  0  0  0  0  0  0  0  0  0
    2.0000   -1.2151    0.0000 H   0  0  0  0  0  0  0  0  0  0  0  0
    8.6172   -2.8819    0.0000 H   0  0  0  0  0  0  0  0  0  0  0  0
    9.4096   -2.9673    0.0000 H   0  0  0  0  0  0  0  0  0  0  0  0
   10.4260   -1.6186    0.0000 H   0  0  0  0  0  0  0  0  0  0  0  0
    9.6335   -1.5332    0.0000 H   0  0  0  0  0  0  0  0  0  0  0  0
    2.9304    2.6380    0.0000 H   0  0  0  0  0  0  0  0  0  0  0  0
   10.3392   -3.0675    0.0000 H   0  0  0  0  0  0  0  0  0  0  0  0
   11.1317   -3.1529    0.0000 H   0  0  0  0  0  0  0  0  0  0  0  0
   11.9517   -2.8007    0.0000 H   0  0  0  0  0  0  0  0  0  0  0  0
   12.2680   -1.9829    0.0000 H   0  0  0  0  0  0  0  0  0  0  0  0
   11.4503   -1.6666    0.0000 H   0  0  0  0  0  0  0  0  0  0  0  0
 14  1  1  6  0  0  0
  1 41  1  0  0  0  0
  2 19  1  0  0  0  0
  2 46  1  0  0  0  0
  3 19  2  0  0  0  0
  4  5  1  0  0  0  0
  4  6  1  0  0  0  0
  4  7  1  0  0  0  0
  4 24  1  1  0  0  0
  5  8  1  0  0  0  0
  5 10  1  0  0  0  0
  5 25  1  1  0  0  0
  6  9  1  0  0  0  0
  6 11  1  0  0  0  0
  6 26  1  1  0  0  0
  7  8  1  0  0  0  0
  7 13  1  0  0  0  0
  7 27  1  1  0  0  0
  8 12  1  1  0  0  0
  8 28  1  0  0  0  0
  9 10  1  0  0  0  0
  9 14  1  0  0  0  0
  9 29  1  6  0  0  0
 10 30  1  0  0  0  0
 10 31  1  0  0  0  0
 11 15  1  0  0  0  0
 11 16  1  0  0  0  0
 11 32  1  1  0  0  0
 12 18  1  0  0  0  0
 12 33  1  0  0  0  0
 12 34  1  0  0  0  0
 13 15  2  0  0  0  0
 13 35  1  0  0  0  0
 14 17  1  0  0  0  0
 14 36  1  0  0  0  0
 15 37  1  0  0  0  0
 16 17  2  0  0  0  0
 16 19  1  0  0  0  0
 17 38  1  0  0  0  0
 18 20  1  0  0  0  0
 18 39  1  0  0  0  0
 18 40  1  0  0  0  0
 20 21  1  0  0  0  0
 20 42  1  0  0  0  0
 20 43  1  0  0  0  0
 21 22  1  0  0  0  0
 21 44  1  0  0  0  0
 21 45  1  0  0  0  0
 22 23  1  0  0  0  0
 22 47  1  0  0  0  0
 22 48  1  0  0  0  0
 23 49  1  0  0  0  0
 23 50  1  0  0  0  0
 23 51  1  0  0  0  0
M  END
> <PUBCHEM_COMPOUND_CID>
71521967

> <PUBCHEM_COMPOUND_CANONICALIZED>
1

> <PUBCHEM_CACTVS_COMPLEXITY>
549

> <PUBCHEM_CACTVS_HBOND_ACCEPTOR>
3

> <PUBCHEM_CACTVS_HBOND_DONOR>
2

> <PUBCHEM_CACTVS_ROTATABLE_BOND>
6

> <PUBCHEM_CACTVS_SUBSKEYS>
AAADceB4MAAAAAAAAAAAAAAAAABgAYAAAAAgQAAABgAQAECAAAAAGgAACAAADRSggAICCAAAAgCIAiDSCAAAAAAgAAAICAEAAEgAFBIAAQAAUAAEgAAIEYOIyPCOgAAAAAAAAAAAAAAAAAAAAQAACAAAAA==

> <PUBCHEM_IUPAC_OPENEYE_NAME>
(1S,2S,3R,6R,9S,10R,11S,12S)-2-hexyl-9-hydroxy-tetracyclo[8.2.1.03,12.06,11]trideca-4,7-diene-7-carboxylic acid

> <PUBCHEM_IUPAC_CAS_NAME>
(1S,2S,3R,6R,9S,10R,11S,12S)-2-hexyl-9-hydroxy-7-tetracyclo[8.2.1.03,12.06,11]trideca-4,7-dienecarboxylic acid

> <PUBCHEM_IUPAC_NAME_MARKUP>
(1<I>S</I>,2<I>S</I>,3<I>R</I>,6<I>R</I>,9<I>S</I>,10<I>R</I>,11<I>S</I>,12<I>S</I>)-2-hexyl-9-hydroxytetracyclo[8.2.1.0<SUP>3,12</SUP>.0<SUP>6,11</SUP>]trideca-4,7-diene-7-carboxylic acid

> <PUBCHEM_IUPAC_NAME>
(1S,2S,3R,6R,9S,10R,11S,12S)-2-hexyl-9-hydroxytetracyclo[8.2.1.03,12.06,11]trideca-4,7-diene-7-carboxylic acid

> <PUBCHEM_IUPAC_SYSTEMATIC_NAME>
(1S,2S,3R,6R,9S,10R,11S,12S)-2-hexyl-9-oxidanyl-tetracyclo[8.2.1.03,12.06,11]trideca-4,7-diene-7-carboxylic acid

> <PUBCHEM_IUPAC_TRADITIONAL_NAME>
(1S,2S,3R,6R,9S,10R,11S,12S)-2-hexyl-9-hydroxy-tetracyclo[8.2.1.03,12.06,11]trideca-4,7-diene-7-carboxylic acid

> <PUBCHEM_IUPAC_INCHI>
InChI=1S/C20H28O3/c1-2-3-4-5-6-11-12-7-8-13-15(20(22)23)10-17(21)16-9-14(11)18(12)19(13)16/h7-8,10-14,16-19,21H,2-6,9H2,1H3,(H,22,23)/t11-,12-,13+,14+,16+,17-,18-,19+/m1/s1

> <PUBCHEM_IUPAC_INCHIKEY>
CFVWGWLCFBEENY-YCJWGMIRSA-N

> <PUBCHEM_XLOGP3_AA>
4.4

> <PUBCHEM_EXACT_MASS>
316.20384475

> <PUBCHEM_MOLECULAR_FORMULA>
C20H28O3

> <PUBCHEM_MOLECULAR_WEIGHT>
316.4

> <PUBCHEM_OPENEYE_CAN_SMILES>
CCCCCCC1C2CC3C(C=C(C4C3C2C1C=C4)C(=O)O)O

> <PUBCHEM_OPENEYE_ISO_SMILES>
CCCCCC[C@H]1[C@@H]2C[C@H]3[C@@H](C=C([C@H]4[C@@H]3[C@@H]2[C@@H]1C=C4)C(=O)O)O

> <PUBCHEM_CACTVS_TPSA>
57.5

> <PUBCHEM_MONOISOTOPIC_WEIGHT>
316.20384475

> <PUBCHEM_TOTAL_CHARGE>
0

> <PUBCHEM_HEAVY_ATOM_COUNT>
23

> <PUBCHEM_ATOM_DEF_STEREO_COUNT>
8

> <PUBCHEM_ATOM_UDEF_STEREO_COUNT>
0

> <PUBCHEM_BOND_DEF_STEREO_COUNT>
0

> <PUBCHEM_BOND_UDEF_STEREO_COUNT>
0

> <PUBCHEM_ISOTOPIC_ATOM_COUNT>
0

> <PUBCHEM_COMPONENT_COUNT>
1

> <PUBCHEM_CACTVS_TAUTO_COUNT>
-1

> <PUBCHEM_COORDINATE_TYPE>
1
5
255

> <PUBCHEM_BONDANNOTATIONS>
14  1  6
11  32  5
4  24  5
5  25  5
6  26  5
7  27  5
8  12  5
9  29  6

$$$$
